TITLE = "PIV data, model ID: 1, wind tunnel: TWG"
VARIABLES = "x", "y", "z", "u", "v", "w", "vorticity"
ZONE I=83, J=62, F=Point, T="xi = 0.35"
171.577 34.2222 -1.30002 0 0 0 0
171.577 36 -1.30002 0 0 0 0
171.577 37.7778 -1.30002 0 0 0 0
171.577 39.5556 -1.30002 0 0 0 0
171.577 41.3333 -1.30002 0 0 0 0
171.577 43.1111 -1.30002 0 0 0 0
171.577 44.8889 -1.30002 0 0 0 0
171.577 46.6667 -1.30002 0 0 0 0
171.577 48.4445 -1.30002 0 0 0 0
171.577 50.2222 -1.30002 0 0 0 0
171.577 52 -1.30002 0 0 0 0
171.577 53.7778 -1.30002 0 0 0 0
171.577 55.5556 -1.30002 0 0 0 0
171.577 57.3333 -1.30002 0 0 0 0
171.577 59.1111 -1.30002 0 0 0 0
171.577 60.8889 -1.30002 0 0 0 0
171.577 62.6667 -1.30002 0 0 0 0
171.577 64.4445 -1.30002 0 0 0 0
171.577 66.2222 -1.30002 0 0 0 0
171.577 68 -1.30002 0 0 0 0
171.577 69.7778 -1.30002 0 0 0 0
171.577 71.5556 -1.30002 0 0 0 0
171.577 73.3333 -1.30002 0 0 0 0
171.577 75.1111 -1.30002 0 0 0 0
171.577 76.8889 -1.30002 0 0 0 0
171.577 78.6667 -1.30002 0 0 0 0
171.577 80.4445 -1.30002 0 0 0 0
171.577 82.2222 -1.30002 0 0 0 0
171.577 84 -1.30002 0 0 0 0
171.577 85.7778 -1.30002 0 0 0 0
171.577 87.5556 -1.30002 0 0 0 0
171.577 89.3333 -1.30002 0 0 0 0
171.577 91.1111 -1.30002 0 0 0 0
171.577 92.8889 -1.30002 0 0 0 0
171.577 94.6667 -1.30002 0 0 0 0
171.577 96.4444 -1.30002 0 0 0 0
171.577 98.2222 -1.30002 0 0 0 0
171.577 100 -1.30002 0 0 0 0
171.577 101.778 -1.30002 0 0 0 0
171.577 103.556 -1.30002 0 0 0 0
171.577 105.333 -1.30002 0 0 0 0
171.577 107.111 -1.30002 0 0 0 0
171.577 108.889 -1.30002 0 0 0 0
171.577 110.667 -1.30002 0 0 0 0
171.577 112.444 -1.30002 150.25 4.74873 55.0594 -399.744
171.577 114.222 -1.30002 150.473 4.45057 53.9581 -89.7749
171.577 116 -1.30002 150.855 4.21182 52.9782 151.377
171.577 117.778 -1.30002 151.118 3.76353 52.1702 234.488
171.577 119.556 -1.30002 151.326 3.482 51.4522 249.337
171.577 121.333 -1.30002 151.638 2.95574 50.7715 56.8304
171.577 123.111 -1.30002 152.051 2.8125 50.1239 314.984
171.577 124.889 -1.30002 152.226 2.59954 49.5901 487.262
171.577 126.667 -1.30002 152.41 2.02534 49.055 341.508
171.577 128.444 -1.30002 152.617 1.8548 48.5171 400.004
171.577 130.222 -1.30002 152.863 1.5315 48.0028 221.544
171.577 132 -1.30002 152.946 1.12738 47.5638 176.25
171.577 133.778 -1.30002 153.32 0.783971 47.122 100.207
171.577 135.556 -1.30002 153.814 0.636236 46.6135 150.244
171.577 137.333 -1.30002 154.09 0.428765 46.0757 107.324
171.577 139.111 -1.30002 154.383 0.146718 45.5436 -44.6556
171.577 140.889 -1.30002 154.534 -0.12148 45.0862 139.826
171.577 142.667 -1.30002 154.693 -0.137514 44.7033 55.3971
171.577 144.444 -1.30002 154.557 -0.0298223 44.3047 315.43
171.577 146.222 -1.30002 154.607 -0.155515 44.0366 187.103
171.577 148 -1.30002 154.962 -0.367945 43.7421 65.5704
171.577 149.778 -1.30002 155.128 -0.573379 43.53 107.107
171.577 151.556 -1.30002 154.941 -0.359544 43.2562 174.292
171.577 153.333 -1.30002 155.189 -0.8578 43.0333 121.42
171.577 155.111 -1.30002 155.181 -0.876939 42.6861 -87.765
171.577 156.889 -1.30002 154.88 -0.703399 42.3707 75.7647
171.577 158.667 -1.30002 155.034 -0.81539 42.0935 67.9116
171.577 160.444 -1.30002 155.038 -0.925695 41.8093 -51.74
171.577 162.222 -1.30002 155.155 -1.17945 41.4921 -85.0519
171.577 164 -1.30002 155.164 -1.35975 41.2087 -51.8742
171.577 165.778 -1.30002 155.032 -1.24157 40.9832 -44.2946
171.577 167.556 -1.30002 155.097 -1.21627 40.8318 -76.9738
171.577 169.333 -1.30002 155.088 -1.11324 40.5892 3.93568
171.577 171.111 -1.30002 155.127 -0.948796 40.4943 54.859
171.577 172.889 -1.30002 154.593 -1.15291 40.3355 -271.889
171.577 174.667 -1.30002 0 0 0 0
171.577 176.444 -1.30002 0 0 0 0
171.577 178.222 -1.30002 0 0 0 0
171.577 180 -1.30002 0 0 0 0
171.577 34.2222 -0.324419 0 0 0 0
171.577 36 -0.324419 0 0 0 0
171.577 37.7778 -0.324419 0 0 0 0
171.577 39.5556 -0.324419 0 0 0 0
171.577 41.3333 -0.324419 0 0 0 0
171.577 43.1111 -0.324419 0 0 0 0
171.577 44.8889 -0.324419 0 0 0 0
171.577 46.6667 -0.324419 0 0 0 0
171.577 48.4445 -0.324419 0 0 0 0
171.577 50.2222 -0.324419 0 0 0 0
171.577 52 -0.324419 0 0 0 0
171.577 53.7778 -0.324419 0 0 0 0
171.577 55.5556 -0.324419 0 0 0 0
171.577 57.3333 -0.324419 0 0 0 0
171.577 59.1111 -0.324419 0 0 0 0
171.577 60.8889 -0.324419 0 0 0 0
171.577 62.6667 -0.324419 0 0 0 0
171.577 64.4445 -0.324419 0 0 0 0
171.577 66.2222 -0.324419 0 0 0 0
171.577 68 -0.324419 0 0 0 0
171.577 69.7778 -0.324419 0 0 0 0
171.577 71.5556 -0.324419 0 0 0 0
171.577 73.3333 -0.324419 0 0 0 0
171.577 75.1111 -0.324419 0 0 0 0
171.577 76.8889 -0.324419 0 0 0 0
171.577 78.6667 -0.324419 0 0 0 0
171.577 80.4445 -0.324419 0 0 0 0
171.577 82.2222 -0.324419 0 0 0 0
171.577 84 -0.324419 0 0 0 0
171.577 85.7778 -0.324419 0 0 0 0
171.577 87.5556 -0.324419 0 0 0 0
171.577 89.3333 -0.324419 0 0 0 0
171.577 91.1111 -0.324419 0 0 0 0
171.577 92.8889 -0.324419 0 0 0 0
171.577 94.6667 -0.324419 0 0 0 0
171.577 96.4444 -0.324419 0 0 0 0
171.577 98.2222 -0.324419 0 0 0 0
171.577 100 -0.324419 0 0 0 0
171.577 101.778 -0.324419 0 0 0 0
171.577 103.556 -0.324419 0 0 0 0
171.577 105.333 -0.324419 0 0 0 0
171.577 107.111 -0.324419 149.944 4.79667 60.734 -1129.34
171.577 108.889 -0.324419 150.087 4.72486 58.4546 -828.32
171.577 110.667 -0.324419 150.371 4.63057 56.5307 -199.696
171.577 112.444 -0.324419 150.647 4.53426 55.0757 -215.959
171.577 114.222 -0.324419 150.802 3.96717 54.032 26.3952
171.577 116 -0.324419 151.35 3.57362 53.1216 210.973
171.577 117.778 -0.324419 151.518 3.1161 52.3384 206.185
171.577 119.556 -0.324419 151.731 2.8549 51.646 266.815
171.577 121.333 -0.324419 152.081 2.53577 50.9434 146.2
171.577 123.111 -0.324419 152.513 2.18108 50.3379 338.017
171.577 124.889 -0.324419 152.573 1.83091 49.776 437.614
171.577 126.667 -0.324419 152.826 1.3977 49.2373 223.85
171.577 128.444 -0.324419 153.163 1.1758 48.6961 291.817
171.577 130.222 -0.324419 153.355 1.05382 48.1949 228.356
171.577 132 -0.324419 153.519 0.71378 47.7528 158.047
171.577 133.778 -0.324419 153.673 0.425491 47.3245 -18.0209
171.577 135.556 -0.324419 154.048 0.202521 46.7564 -0.352569
171.577 137.333 -0.324419 154.389 0.030446 46.2057 24.4051
171.577 139.111 -0.324419 154.641 -0.0811887 45.6965 16.4761
171.577 140.889 -0.324419 154.91 -0.488434 45.2266 -24.2977
171.577 142.667 -0.324419 155.139 -0.406027 44.8094 7.46684
171.577 144.444 -0.324419 154.883 -0.520519 44.4616 169.615
171.577 146.222 -0.324419 154.916 -0.492404 44.1707 27.2505
171.577 148 -0.324419 155.219 -0.570903 43.9418 58.6398
171.577 149.778 -0.324419 155.254 -0.811181 43.6688 64.7376
171.577 151.556 -0.324419 155.06 -0.665893 43.4074 165.984
171.577 153.333 -0.324419 155.337 -1.13271 43.118 -14.2696
171.577 155.111 -0.324419 155.299 -0.973102 42.7295 -139.603
171.577 156.889 -0.324419 155.269 -0.939897 42.4006 109.881
171.577 158.667 -0.324419 155.284 -1.03571 42.1152 95.7837
171.577 160.444 -0.324419 155.247 -1.04026 41.8622 21.6071
171.577 162.222 -0.324419 155.246 -1.26125 41.593 -31.4397
171.577 164 -0.324419 155.417 -1.44876 41.3172 -25.1836
171.577 165.778 -0.324419 155.233 -1.30176 41.0929 23.6055
171.577 167.556 -0.324419 155.195 -1.2493 40.9158 -8.75935
171.577 169.333 -0.324419 155.255 -1.2097 40.7472 47.1152
171.577 171.111 -0.324419 155.127 -1.07192 40.6426 34.5484
171.577 172.889 -0.324419 155.03 -0.974789 40.4983 -100.311
171.577 174.667 -0.324419 0 0 0 0
171.577 176.444 -0.324419 0 0 0 0
171.577 178.222 -0.324419 0 0 0 0
171.577 180 -0.324419 0 0 0 0
171.577 34.2222 0.651181 0 0 0 0
171.577 36 0.651181 0 0 0 0
171.577 37.7778 0.651181 0 0 0 0
171.577 39.5556 0.651181 0 0 0 0
171.577 41.3333 0.651181 0 0 0 0
171.577 43.1111 0.651181 0 0 0 0
171.577 44.8889 0.651181 0 0 0 0
171.577 46.6667 0.651181 0 0 0 0
171.577 48.4445 0.651181 0 0 0 0
171.577 50.2222 0.651181 0 0 0 0
171.577 52 0.651181 0 0 0 0
171.577 53.7778 0.651181 0 0 0 0
171.577 55.5556 0.651181 0 0 0 0
171.577 57.3333 0.651181 0 0 0 0
171.577 59.1111 0.651181 0 0 0 0
171.577 60.8889 0.651181 0 0 0 0
171.577 62.6667 0.651181 0 0 0 0
171.577 64.4445 0.651181 0 0 0 0
171.577 66.2222 0.651181 0 0 0 0
171.577 68 0.651181 0 0 0 0
171.577 69.7778 0.651181 0 0 0 0
171.577 71.5556 0.651181 0 0 0 0
171.577 73.3333 0.651181 0 0 0 0
171.577 75.1111 0.651181 0 0 0 0
171.577 76.8889 0.651181 0 0 0 0
171.577 78.6667 0.651181 0 0 0 0
171.577 80.4445 0.651181 0 0 0 0
171.577 82.2222 0.651181 0 0 0 0
171.577 84 0.651181 0 0 0 0
171.577 85.7778 0.651181 0 0 0 0
171.577 87.5556 0.651181 0 0 0 0
171.577 89.3333 0.651181 0 0 0 0
171.577 91.1111 0.651181 0 0 0 0
171.577 92.8889 0.651181 0 0 0 0
171.577 94.6667 0.651181 0 0 0 0
171.577 96.4444 0.651181 0 0 0 0
171.577 98.2222 0.651181 0 0 0 0
171.577 100 0.651181 0 0 0 0
171.577 101.778 0.651181 0 0 0 0
171.577 103.556 0.651181 150.033 4.62428 65.4788 -1060.2
171.577 105.333 0.651181 149.906 4.68866 62.8259 -637.3
171.577 107.111 0.651181 150.181 4.64773 60.4447 -741.257
171.577 108.889 0.651181 150.426 4.37978 58.3347 -359.779
171.577 110.667 0.651181 150.769 3.89812 56.6844 48.961
171.577 112.444 0.651181 151.182 3.79867 55.3487 204.552
171.577 114.222 0.651181 151.265 3.32684 54.2702 109.077
171.577 116 0.651181 151.738 2.87088 53.3003 189.71
171.577 117.778 0.651181 152.039 2.55155 52.4442 118.313
171.577 119.556 0.651181 152.311 2.19573 51.7176 210.314
171.577 121.333 0.651181 152.638 1.95251 51.036 217.276
171.577 123.111 0.651181 152.812 1.5124 50.4542 294.397
171.577 124.889 0.651181 152.955 1.14176 49.8838 312.36
171.577 126.667 0.651181 153.176 0.995849 49.3698 139.194
171.577 128.444 0.651181 153.525 0.713273 48.8534 144.087
171.577 130.222 0.651181 153.664 0.568336 48.3309 190.634
171.577 132 0.651181 153.917 0.341404 47.8796 106.371
171.577 133.778 0.651181 153.965 0.272402 47.3956 -121.598
171.577 135.556 0.651181 154.202 0.0228582 46.8029 -148.762
171.577 137.333 0.651181 154.641 -0.200592 46.2816 -103.488
171.577 139.111 0.651181 154.86 -0.422669 45.8533 -31.7667
171.577 140.889 0.651181 155.049 -0.560828 45.455 -213.552
171.577 142.667 0.651181 155.237 -0.571962 45.0341 -33.7782
171.577 144.444 0.651181 155.057 -0.711333 44.6003 -25.3113
171.577 146.222 0.651181 155.002 -0.493904 44.2754 -33.3078
171.577 148 0.651181 155.247 -0.757759 44.0061 20.0296
171.577 149.778 0.651181 155.288 -0.992924 43.7322 -43.0106
171.577 151.556 0.651181 155.24 -0.985724 43.4776 123.548
171.577 153.333 0.651181 155.428 -1.20203 43.1483 -133.919
171.577 155.111 0.651181 155.374 -0.998188 42.7514 -73.3595
171.577 156.889 0.651181 155.539 -1.25487 42.4195 86.0184
171.577 158.667 0.651181 155.446 -1.29779 42.1169 58.266
171.577 160.444 0.651181 155.377 -1.25447 41.8548 19.8996
171.577 162.222 0.651181 155.212 -1.41715 41.5876 -54.2839
171.577 164 0.651181 155.302 -1.58502 41.3592 -96.5694
171.577 165.778 0.651181 155.233 -1.50788 41.1054 21.0037
171.577 167.556 0.651181 155.257 -1.38892 40.8936 72.2549
171.577 169.333 0.651181 155.335 -1.35512 40.7643 129.116
171.577 171.111 0.651181 155.084 -1.15278 40.6071 68.6517
171.577 172.889 0.651181 155.057 -1.11554 40.4952 133.097
171.577 174.667 0.651181 155.057 -0.986046 40.3465 275.039
171.577 176.444 0.651181 154.361 -1.93103 40.1149 -155.029
171.577 178.222 0.651181 0 0 0 0
171.577 180 0.651181 0 0 0 0
171.577 34.2222 1.62678 0 0 0 0
171.577 36 1.62678 0 0 0 0
171.577 37.7778 1.62678 0 0 0 0
171.577 39.5556 1.62678 0 0 0 0
171.577 41.3333 1.62678 0 0 0 0
171.577 43.1111 1.62678 0 0 0 0
171.577 44.8889 1.62678 0 0 0 0
171.577 46.6667 1.62678 0 0 0 0
171.577 48.4445 1.62678 0 0 0 0
171.577 50.2222 1.62678 0 0 0 0
171.577 52 1.62678 0 0 0 0
171.577 53.7778 1.62678 0 0 0 0
171.577 55.5556 1.62678 0 0 0 0
171.577 57.3333 1.62678 0 0 0 0
171.577 59.1111 1.62678 0 0 0 0
171.577 60.8889 1.62678 0 0 0 0
171.577 62.6667 1.62678 0 0 0 0
171.577 64.4445 1.62678 0 0 0 0
171.577 66.2222 1.62678 0 0 0 0
171.577 68 1.62678 0 0 0 0
171.577 69.7778 1.62678 0 0 0 0
171.577 71.5556 1.62678 0 0 0 0
171.577 73.3333 1.62678 0 0 0 0
171.577 75.1111 1.62678 0 0 0 0
171.577 76.8889 1.62678 0 0 0 0
171.577 78.6667 1.62678 0 0 0 0
171.577 80.4445 1.62678 0 0 0 0
171.577 82.2222 1.62678 0 0 0 0
171.577 84 1.62678 0 0 0 0
171.577 85.7778 1.62678 0 0 0 0
171.577 87.5556 1.62678 0 0 0 0
171.577 89.3333 1.62678 0 0 0 0
171.577 91.1111 1.62678 0 0 0 0
171.577 92.8889 1.62678 0 0 0 0
171.577 94.6667 1.62678 0 0 0 0
171.577 96.4444 1.62678 0 0 0 0
171.577 98.2222 1.62678 150.949 3.80584 73.3051 -1305.82
171.577 100 1.62678 150.566 4.34233 70.0072 -636.437
171.577 101.778 1.62678 150.391 4.22103 67.6163 -79.0899
171.577 103.556 1.62678 150.24 4.20254 65.3817 -466.107
171.577 105.333 1.62678 150.37 3.9289 62.9011 -320.333
171.577 107.111 1.62678 150.745 3.77866 60.5884 -125.165
171.577 108.889 1.62678 151.138 3.36356 58.5285 79.5038
171.577 110.667 1.62678 151.35 2.89614 56.9422 201.862
171.577 112.444 1.62678 151.704 2.81008 55.6301 353.113
171.577 114.222 1.62678 151.943 2.63037 54.4593 166.053
171.577 116 1.62678 152.093 2.20152 53.3789 200.729
171.577 117.778 1.62678 152.496 2.01681 52.4407 113.146
171.577 119.556 1.62678 152.807 1.67163 51.6596 153.723
171.577 121.333 1.62678 153.013 1.41839 51.0425 258.27
171.577 123.111 1.62678 153.046 0.974434 50.4833 256.695
171.577 124.889 1.62678 153.28 0.626417 49.9314 163.84
171.577 126.667 1.62678 153.577 0.560559 49.3749 86.0139
171.577 128.444 1.62678 153.867 0.324447 48.865 150.808
171.577 130.222 1.62678 153.929 0.147526 48.4055 148.951
171.577 132 1.62678 154.147 -0.00697609 47.9414 39.2561
171.577 133.778 1.62678 154.342 0.0719601 47.3903 -82.4653
171.577 135.556 1.62678 154.424 -0.118646 46.8866 -177.131
171.577 137.333 1.62678 154.646 -0.288827 46.3898 -163.149
171.577 139.111 1.62678 154.901 -0.472766 46.0052 -232.806
171.577 140.889 1.62678 155.118 -0.521252 45.5613 -272.644
171.577 142.667 1.62678 155.312 -0.80923 45.1502 -10.6382
171.577 144.444 1.62678 155.389 -0.887552 44.7102 4.49748
171.577 146.222 1.62678 155.305 -0.753455 44.4056 127.528
171.577 148 1.62678 155.323 -0.908042 44.079 1.10894
171.577 149.778 1.62678 155.453 -1.01725 43.847 -77.3541
171.577 151.556 1.62678 155.622 -1.22744 43.5142 12.2364
171.577 153.333 1.62678 155.58 -1.26999 43.2199 -98.58
171.577 155.111 1.62678 155.425 -1.22986 42.8773 58.932
171.577 156.889 1.62678 155.69 -1.45589 42.4733 45.0596
171.577 158.667 1.62678 155.565 -1.45934 42.2279 26.662
171.577 160.444 1.62678 155.534 -1.3696 41.9179 2.65065
171.577 162.222 1.62678 155.327 -1.42727 41.6119 -91.5072
171.577 164 1.62678 155.243 -1.52492 41.3837 -130.029
171.577 165.778 1.62678 155.243 -1.59822 41.0928 -26.4087
171.577 167.556 1.62678 155.207 -1.5775 40.9035 94.2043
171.577 169.333 1.62678 155.374 -1.61888 40.8065 156.062
171.577 171.111 1.62678 155.198 -1.35353 40.6898 163.571
171.577 172.889 1.62678 155.074 -1.37748 40.5942 175.866
171.577 174.667 1.62678 154.913 -1.35874 40.4734 296.743
171.577 176.444 1.62678 154.472 -1.9069 40.3306 4.13871
171.577 178.222 1.62678 0 0 0 0
171.577 180 1.62678 0 0 0 0
171.577 34.2222 2.60238 0 0 0 0
171.577 36 2.60238 0 0 0 0
171.577 37.7778 2.60238 0 0 0 0
171.577 39.5556 2.60238 0 0 0 0
171.577 41.3333 2.60238 0 0 0 0
171.577 43.1111 2.60238 0 0 0 0
171.577 44.8889 2.60238 0 0 0 0
171.577 46.6667 2.60238 0 0 0 0
171.577 48.4445 2.60238 0 0 0 0
171.577 50.2222 2.60238 0 0 0 0
171.577 52 2.60238 0 0 0 0
171.577 53.7778 2.60238 0 0 0 0
171.577 55.5556 2.60238 0 0 0 0
171.577 57.3333 2.60238 0 0 0 0
171.577 59.1111 2.60238 0 0 0 0
171.577 60.8889 2.60238 0 0 0 0
171.577 62.6667 2.60238 0 0 0 0
171.577 64.4445 2.60238 0 0 0 0
171.577 66.2222 2.60238 0 0 0 0
171.577 68 2.60238 0 0 0 0
171.577 69.7778 2.60238 0 0 0 0
171.577 71.5556 2.60238 0 0 0 0
171.577 73.3333 2.60238 0 0 0 0
171.577 75.1111 2.60238 0 0 0 0
171.577 76.8889 2.60238 0 0 0 0
171.577 78.6667 2.60238 0 0 0 0
171.577 80.4445 2.60238 0 0 0 0
171.577 82.2222 2.60238 0 0 0 0
171.577 84 2.60238 0 0 0 0
171.577 85.7778 2.60238 0 0 0 0
171.577 87.5556 2.60238 0 0 0 0
171.577 89.3333 2.60238 0 0 0 0
171.577 91.1111 2.60238 0 0 0 0
171.577 92.8889 2.60238 154.154 -3.5209 87.4072 -2664.09
171.577 94.6667 2.60238 152.429 0.0128093 82.0341 -1518.39
171.577 96.4444 2.60238 151.507 2.27939 76.5911 -589.818
171.577 98.2222 2.60238 151.16 3.27002 72.3524 -502.49
171.577 100 2.60238 151.042 3.40241 69.6746 313.585
171.577 101.778 2.60238 151.13 3.02917 67.7411 501.859
171.577 103.556 2.60238 151.066 2.94576 65.6757 291.845
171.577 105.333 2.60238 151.312 2.68284 63.2816 144.557
171.577 107.111 2.60238 151.522 2.49268 60.9902 65.498
171.577 108.889 2.60238 151.874 2.22396 58.7893 28.5383
171.577 110.667 2.60238 152.072 1.91343 57.0509 27.2455
171.577 112.444 2.60238 152.224 1.74691 55.6939 259.417
171.577 114.222 2.60238 152.558 1.76759 54.4867 251.038
171.577 116 2.60238 152.584 1.3716 53.4093 184.627
171.577 117.778 2.60238 152.872 1.38739 52.4603 237.535
171.577 119.556 2.60238 153.151 1.12837 51.678 252.873
171.577 121.333 2.60238 153.224 0.802949 51.0519 343.374
171.577 123.111 2.60238 153.359 0.401869 50.5206 149.284
171.577 124.889 2.60238 153.714 0.213889 49.9371 41.3084
171.577 126.667 2.60238 153.875 0.242714 49.3934 54.9496
171.577 128.444 2.60238 154.023 -0.113048 48.912 75.1185
171.577 130.222 2.60238 154.058 -0.229082 48.4762 81.8089
171.577 132 2.60238 154.239 -0.292239 48.0323 20.2716
171.577 133.778 2.60238 154.529 -0.145467 47.4266 -10.1823
171.577 135.556 2.60238 154.759 -0.180658 46.9657 -86.1854
171.577 137.333 2.60238 154.764 -0.366021 46.5158 -122.646
171.577 139.111 2.60238 154.962 -0.423021 46.088 -227.416
171.577 140.889 2.60238 155.193 -0.497989 45.6172 -168.797
171.577 142.667 2.60238 155.318 -1.01834 45.208 -183.926
171.577 144.444 2.60238 155.715 -1.12879 44.7736 -77.8919
171.577 146.222 2.60238 155.62 -1.08908 44.4122 135.002
171.577 148 2.60238 155.574 -1.06643 44.1108 20.9618
171.577 149.778 2.60238 155.604 -1.1519 43.8778 10.5834
171.577 151.556 2.60238 155.949 -1.35379 43.5201 15.1175
171.577 153.333 2.60238 155.704 -1.35925 43.2486 -71.2985
171.577 155.111 2.60238 155.597 -1.52284 42.939 126.134
171.577 156.889 2.60238 155.832 -1.69912 42.5819 104.599
171.577 158.667 2.60238 155.693 -1.65465 42.3425 8.64073
171.577 160.444 2.60238 155.578 -1.59774 42.0129 62.893
171.577 162.222 2.60238 155.454 -1.53172 41.7248 46.9522
171.577 164 2.60238 155.295 -1.61614 41.5241 15.0854
171.577 165.778 2.60238 155.337 -1.71984 41.2399 -20.6626
171.577 167.556 2.60238 155.255 -1.72987 41.0262 51.685
171.577 169.333 2.60238 155.354 -1.77692 40.8974 6.8045
171.577 171.111 2.60238 155.312 -1.58843 40.762 99.03
171.577 172.889 2.60238 155.135 -1.57743 40.7041 95.1977
171.577 174.667 2.60238 154.852 -1.70973 40.5983 116.952
171.577 176.444 2.60238 154.312 -2.09586 40.3915 -226.119
171.577 178.222 2.60238 0 0 0 0
171.577 180 2.60238 0 0 0 0
171.577 34.2222 3.57803 0 0 0 0
171.577 36 3.57803 0 0 0 0
171.577 37.7778 3.57803 0 0 0 0
171.577 39.5556 3.57803 0 0 0 0
171.577 41.3333 3.57803 0 0 0 0
171.577 43.1111 3.57803 0 0 0 0
171.577 44.8889 3.57803 0 0 0 0
171.577 46.6667 3.57803 0 0 0 0
171.577 48.4445 3.57803 0 0 0 0
171.577 50.2222 3.57803 0 0 0 0
171.577 52 3.57803 0 0 0 0
171.577 53.7778 3.57803 0 0 0 0
171.577 55.5556 3.57803 0 0 0 0
171.577 57.3333 3.57803 0 0 0 0
171.577 59.1111 3.57803 0 0 0 0
171.577 60.8889 3.57803 0 0 0 0
171.577 62.6667 3.57803 0 0 0 0
171.577 64.4445 3.57803 0 0 0 0
171.577 66.2222 3.57803 0 0 0 0
171.577 68 3.57803 0 0 0 0
171.577 69.7778 3.57803 0 0 0 0
171.577 71.5556 3.57803 0 0 0 0
171.577 73.3333 3.57803 0 0 0 0
171.577 75.1111 3.57803 0 0 0 0
171.577 76.8889 3.57803 0 0 0 0
171.577 78.6667 3.57803 0 0 0 0
171.577 80.4445 3.57803 0 0 0 0
171.577 82.2222 3.57803 0 0 0 0
171.577 84 3.57803 0 0 0 0
171.577 85.7778 3.57803 0 0 0 0
171.577 87.5556 3.57803 0 0 0 0
171.577 89.3333 3.57803 159.617 -14.2194 98.4534 -3587.64
171.577 91.1111 3.57803 156.845 -7.89412 91.9829 -2081.43
171.577 92.8889 3.57803 154.513 -3.87041 86.3219 -1544.7
171.577 94.6667 3.57803 153.09 -1.47374 81.0678 -503.827
171.577 96.4444 3.57803 152.51 0.198184 76.0241 125.317
171.577 98.2222 3.57803 152.327 0.990672 72.1879 787.272
171.577 100 3.57803 152.33 1.19999 69.7796 1105.78
171.577 101.778 3.57803 152.381 1.0475 67.9025 977.175
171.577 103.556 3.57803 152.244 1.18537 65.8111 647.287
171.577 105.333 3.57803 152.336 1.07508 63.5004 372.858
171.577 107.111 3.57803 152.397 1.18584 61.2272 119.766
171.577 108.889 3.57803 152.621 1.1463 59.0021 37.0518
171.577 110.667 3.57803 152.734 1.14399 57.2072 9.74278
171.577 112.444 3.57803 152.709 0.896467 55.7797 57.8009
171.577 114.222 3.57803 153.039 0.886925 54.4518 175.922
171.577 116 3.57803 153.195 0.72934 53.3786 62.6025
171.577 117.778 3.57803 153.29 0.603321 52.4922 312.719
171.577 119.556 3.57803 153.566 0.405176 51.748 330.586
171.577 121.333 3.57803 153.58 0.113114 51.1191 308.139
171.577 123.111 3.57803 153.78 0.0714291 50.5496 18.3681
171.577 124.889 3.57803 154.142 -0.0727038 49.9818 19.4108
171.577 126.667 3.57803 154.16 -0.109313 49.4174 115.251
171.577 128.444 3.57803 154.169 -0.325556 48.9657 28.4054
171.577 130.222 3.57803 154.249 -0.494813 48.5341 68.0066
171.577 132 3.57803 154.377 -0.622468 48.0403 127.702
171.577 133.778 3.57803 154.686 -0.493437 47.52 213.113
171.577 135.556 3.57803 154.981 -0.450392 47.0023 144.26
171.577 137.333 3.57803 154.879 -0.531261 46.5857 82.9523
171.577 139.111 3.57803 155.035 -0.522101 46.1822 45.1459
171.577 140.889 3.57803 155.214 -0.67476 45.709 20.1202
171.577 142.667 3.57803 155.401 -0.913376 45.36 -301.473
171.577 144.444 3.57803 155.762 -1.17236 44.9042 -108.668
171.577 146.222 3.57803 155.72 -1.38057 44.5537 67.9979
171.577 148 3.57803 155.67 -1.24218 44.2372 36.9374
171.577 149.778 3.57803 155.687 -1.36203 43.998 78.7198
171.577 151.556 3.57803 156.077 -1.60229 43.6045 58.9668
171.577 153.333 3.57803 155.77 -1.44982 43.2545 11.4855
171.577 155.111 3.57803 155.762 -1.84181 42.9797 73.3331
171.577 156.889 3.57803 155.887 -1.9873 42.6577 25.4278
171.577 158.667 3.57803 155.768 -1.78851 42.4343 1.19563
171.577 160.444 3.57803 155.64 -1.83136 42.116 61.0078
171.577 162.222 3.57803 155.651 -1.7871 41.8265 93.3193
171.577 164 3.57803 155.514 -1.82043 41.5949 22.0183
171.577 165.778 3.57803 155.516 -1.83111 41.3186 -71.5209
171.577 167.556 3.57803 155.424 -1.86634 41.1061 8.75339
171.577 169.333 3.57803 155.387 -1.77717 40.971 -67.8237
171.577 171.111 3.57803 155.328 -1.65283 40.8759 73.944
171.577 172.889 3.57803 155.205 -1.65306 40.8465 -10.2489
171.577 174.667 3.57803 155.018 -1.75852 40.7023 -77.0193
171.577 176.444 3.57803 154.919 -1.6927 40.4898 -459.32
171.577 178.222 3.57803 0 0 0 0
171.577 180 3.57803 0 0 0 0
171.577 34.2222 4.55364 0 0 0 0
171.577 36 4.55364 0 0 0 0
171.577 37.7778 4.55364 0 0 0 0
171.577 39.5556 4.55364 0 0 0 0
171.577 41.3333 4.55364 0 0 0 0
171.577 43.1111 4.55364 0 0 0 0
171.577 44.8889 4.55364 0 0 0 0
171.577 46.6667 4.55364 0 0 0 0
171.577 48.4445 4.55364 0 0 0 0
171.577 50.2222 4.55364 0 0 0 0
171.577 52 4.55364 0 0 0 0
171.577 53.7778 4.55364 0 0 0 0
171.577 55.5556 4.55364 0 0 0 0
171.577 57.3333 4.55364 0 0 0 0
171.577 59.1111 4.55364 0 0 0 0
171.577 60.8889 4.55364 0 0 0 0
171.577 62.6667 4.55364 0 0 0 0
171.577 64.4445 4.55364 0 0 0 0
171.577 66.2222 4.55364 0 0 0 0
171.577 68 4.55364 0 0 0 0
171.577 69.7778 4.55364 0 0 0 0
171.577 71.5556 4.55364 0 0 0 0
171.577 73.3333 4.55364 0 0 0 0
171.577 75.1111 4.55364 0 0 0 0
171.577 76.8889 4.55364 0 0 0 0
171.577 78.6667 4.55364 0 0 0 0
171.577 80.4445 4.55364 0 0 0 0
171.577 82.2222 4.55364 0 0 0 0
171.577 84 4.55364 167.322 -33.7635 104.187 13334.6
171.577 85.7778 4.55364 167.727 -31.8294 107.084 2479.04
171.577 87.5556 4.55364 163.134 -22.2256 103.981 -909.155
171.577 89.3333 4.55364 159.459 -14.2702 97.4228 -2458.86
171.577 91.1111 4.55364 157.238 -9.19221 90.7419 -1444.69
171.577 92.8889 4.55364 155.769 -6.49684 85.3809 -212.441
171.577 94.6667 4.55364 154.809 -4.65553 80.4294 118.764
171.577 96.4444 4.55364 154.268 -2.83843 75.6348 423.433
171.577 98.2222 4.55364 153.937 -1.69304 72.0691 896.289
171.577 100 4.55364 153.751 -1.10688 69.7635 1106.9
171.577 101.778 4.55364 153.66 -1.05516 67.8645 921.416
171.577 103.556 4.55364 153.378 -0.73348 65.8073 642.546
171.577 105.333 4.55364 153.397 -0.560704 63.4645 268.396
171.577 107.111 4.55364 153.217 -0.209336 61.2027 125.66
171.577 108.889 4.55364 153.255 -0.0542053 58.9921 76.3908
171.577 110.667 4.55364 153.33 0.125716 57.1496 115.935
171.577 112.444 4.55364 153.347 0.121748 55.6345 30.0608
171.577 114.222 4.55364 153.395 0.106781 54.443 229.069
171.577 116 4.55364 153.646 0.174168 53.421 119.798
171.577 117.778 4.55364 153.723 -0.117554 52.5331 216.324
171.577 119.556 4.55364 153.992 -0.270353 51.7408 251.65
171.577 121.333 4.55364 154.071 -0.456085 51.1214 175.475
171.577 123.111 4.55364 154.284 -0.258035 50.5707 124.502
171.577 124.889 4.55364 154.499 -0.445251 50.048 196.333
171.577 126.667 4.55364 154.491 -0.539885 49.5326 204.472
171.577 128.444 4.55364 154.543 -0.653298 49.0713 109.364
171.577 130.222 4.55364 154.655 -0.869569 48.5622 72.8521
171.577 132 4.55364 154.757 -1.09788 48.0825 8.8668
171.577 133.778 4.55364 154.871 -1.13088 47.5458 192.108
171.577 135.556 4.55364 155.139 -0.974964 47.0715 240.253
171.577 137.333 4.55364 155.162 -0.978017 46.6427 154.025
171.577 139.111 4.55364 155.279 -0.992178 46.2222 174.388
171.577 140.889 4.55364 155.246 -0.988409 45.8074 132.217
171.577 142.667 4.55364 155.421 -0.871824 45.4498 -143.93
171.577 144.444 4.55364 155.694 -1.35931 44.9943 -53.7662
171.577 146.222 4.55364 155.933 -1.58776 44.6247 -10.7769
171.577 148 4.55364 155.825 -1.44343 44.3251 91.02
171.577 149.778 4.55364 155.927 -1.65268 44.0152 121.771
171.577 151.556 4.55364 156.146 -1.87694 43.683 62.8615
171.577 153.333 4.55364 155.871 -1.7246 43.2772 19.9777
171.577 155.111 4.55364 155.981 -1.99341 42.9809 -89.5925
171.577 156.889 4.55364 155.984 -2.04801 42.6208 -115.086
171.577 158.667 4.55364 155.932 -1.95431 42.4632 64.4648
171.577 160.444 4.55364 155.725 -2.05039 42.1842 61.9925
171.577 162.222 4.55364 155.753 -1.99975 41.9242 112.308
171.577 164 4.55364 155.727 -1.9378 41.6309 70.1266
171.577 165.778 4.55364 155.619 -1.8485 41.4137 79.2126
171.577 167.556 4.55364 155.549 -1.93774 41.2146 43.5103
171.577 169.333 4.55364 155.383 -1.77093 41.0668 -28.8811
171.577 171.111 4.55364 155.301 -1.80103 40.9661 39.5844
171.577 172.889 4.55364 155.165 -1.65269 40.8588 -69.5416
171.577 174.667 4.55364 155.058 -1.75523 40.7378 -81.3981
171.577 176.444 4.55364 155.318 -1.43288 40.5065 -227.338
171.577 178.222 4.55364 0 0 0 0
171.577 180 4.55364 0 0 0 0
171.577 34.2222 5.52925 0 0 0 0
171.577 36 5.52925 0 0 0 0
171.577 37.7778 5.52925 0 0 0 0
171.577 39.5556 5.52925 0 0 0 0
171.577 41.3333 5.52925 0 0 0 0
171.577 43.1111 5.52925 0 0 0 0
171.577 44.8889 5.52925 0 0 0 0
171.577 46.6667 5.52925 0 0 0 0
171.577 48.4445 5.52925 0 0 0 0
171.577 50.2222 5.52925 0 0 0 0
171.577 52 5.52925 0 0 0 0
171.577 53.7778 5.52925 0 0 0 0
171.577 55.5556 5.52925 0 0 0 0
171.577 57.3333 5.52925 0 0 0 0
171.577 59.1111 5.52925 0 0 0 0
171.577 60.8889 5.52925 0 0 0 0
171.577 62.6667 5.52925 0 0 0 0
171.577 64.4445 5.52925 0 0 0 0
171.577 66.2222 5.52925 0 0 0 0
171.577 68 5.52925 0 0 0 0
171.577 69.7778 5.52925 0 0 0 0
171.577 71.5556 5.52925 0 0 0 0
171.577 73.3333 5.52925 0 0 0 0
171.577 75.1111 5.52925 0 0 0 0
171.577 76.8889 5.52925 0 0 0 0
171.577 78.6667 5.52925 0 0 0 0
171.577 80.4445 5.52925 187.317 -64.1792 92.8761 3180.48
171.577 82.2222 5.52925 181.96 -55.3861 101.746 3017.16
171.577 84 5.52925 175.708 -45.1831 106.252 6848.06
171.577 85.7778 5.52925 169.308 -34.3045 105.647 332.469
171.577 87.5556 5.52925 163.982 -23.9896 100.854 -912.417
171.577 89.3333 5.52925 160.604 -16.6871 94.3663 -463.206
171.577 91.1111 5.52925 158.308 -11.6835 89.0201 -92.1632
171.577 92.8889 5.52925 156.937 -9.11512 84.3851 -146.264
171.577 94.6667 5.52925 156.158 -7.05403 79.5744 -469.651
171.577 96.4444 5.52925 155.58 -5.21607 74.9924 -53.0074
171.577 98.2222 5.52925 155.265 -3.9802 71.7731 553.37
171.577 100 5.52925 154.93 -3.26706 69.5798 910.25
171.577 101.778 5.52925 154.699 -2.9212 67.7095 692.339
171.577 103.556 5.52925 154.382 -2.48339 65.7242 386.388
171.577 105.333 5.52925 154.247 -1.97593 63.3971 20.362
171.577 107.111 5.52925 153.966 -1.51341 61.1109 -51.352
171.577 108.889 5.52925 153.918 -1.22674 58.8729 16.6405
171.577 110.667 5.52925 153.924 -0.925099 57.0389 89.9515
171.577 112.444 5.52925 154.028 -0.64775 55.5788 77.0971
171.577 114.222 5.52925 153.914 -0.774613 54.4053 213.934
171.577 116 5.52925 154.158 -0.552398 53.381 228.719
171.577 117.778 5.52925 154.216 -0.74072 52.497 164.292
171.577 119.556 5.52925 154.354 -0.860684 51.7519 188.825
171.577 121.333 5.52925 154.528 -0.871505 51.1276 109.38
171.577 123.111 5.52925 154.697 -0.760489 50.5787 213.865
171.577 124.889 5.52925 154.732 -1.02541 50.0651 260.79
171.577 126.667 5.52925 154.814 -1.04436 49.5381 210.795
171.577 128.444 5.52925 154.78 -1.07157 49.0401 109.713
171.577 130.222 5.52925 155.002 -1.17953 48.5301 31.7603
171.577 132 5.52925 155.133 -1.19748 48.0576 -130.941
171.577 133.778 5.52925 155.187 -1.42303 47.6144 -64.7593
171.577 135.556 5.52925 155.257 -1.41486 47.1412 120.777
171.577 137.333 5.52925 155.393 -1.29795 46.6687 125.991
171.577 139.111 5.52925 155.519 -1.32071 46.2341 123.825
171.577 140.889 5.52925 155.448 -1.35657 45.8282 107.533
171.577 142.667 5.52925 155.608 -1.07882 45.4542 85.0801
171.577 144.444 5.52925 155.739 -1.52032 45.0969 -106.211
171.577 146.222 5.52925 156.099 -1.72674 44.7226 -99.4056
171.577 148 5.52925 156.066 -1.75422 44.3494 114.06
171.577 149.778 5.52925 156.047 -1.95196 43.973 92.2852
171.577 151.556 5.52925 156.07 -2.13001 43.6982 -47.6733
171.577 153.333 5.52925 155.919 -1.87416 43.3742 45.369
171.577 155.111 5.52925 156.045 -2.02717 43.0985 -61.3294
171.577 156.889 5.52925 156.058 -2.04681 42.8052 -92.3676
171.577 158.667 5.52925 156.025 -2.15393 42.543 -18.6997
171.577 160.444 5.52925 155.997 -2.24816 42.1809 -89.9428
171.577 162.222 5.52925 155.96 -2.30984 41.8886 37.7236