TITLE = "PIV data, model ID: 1, wind tunnel: TWG"
VARIABLES = "x", "y", "z", "u", "v", "w", "vorticity"
ZONE I=83, J=62, F=Point, T="xi = 0.4"
196.088 34.2222 -1.17807 0 0 0 0
196.088 36 -1.17807 0 0 0 0
196.088 37.7778 -1.17807 0 0 0 0
196.088 39.5556 -1.17807 0 0 0 0
196.088 41.3333 -1.17807 0 0 0 0
196.088 43.1111 -1.17807 0 0 0 0
196.088 44.8889 -1.17807 0 0 0 0
196.088 46.6667 -1.17807 0 0 0 0
196.088 48.4445 -1.17807 0 0 0 0
196.088 50.2222 -1.17807 0 0 0 0
196.088 52 -1.17807 0 0 0 0
196.088 53.7778 -1.17807 0 0 0 0
196.088 55.5556 -1.17807 0 0 0 0
196.088 57.3333 -1.17807 0 0 0 0
196.088 59.1111 -1.17807 0 0 0 0
196.088 60.8889 -1.17807 0 0 0 0
196.088 62.6667 -1.17807 0 0 0 0
196.088 64.4445 -1.17807 0 0 0 0
196.088 66.2222 -1.17807 0 0 0 0
196.088 68 -1.17807 0 0 0 0
196.088 69.7778 -1.17807 0 0 0 0
196.088 71.5556 -1.17807 0 0 0 0
196.088 73.3333 -1.17807 0 0 0 0
196.088 75.1111 -1.17807 0 0 0 0
196.088 76.8889 -1.17807 0 0 0 0
196.088 78.6667 -1.17807 0 0 0 0
196.088 80.4445 -1.17807 0 0 0 0
196.088 82.2222 -1.17807 0 0 0 0
196.088 84 -1.17807 0 0 0 0
196.088 85.7778 -1.17807 0 0 0 0
196.088 87.5556 -1.17807 0 0 0 0
196.088 89.3333 -1.17807 0 0 0 0
196.088 91.1111 -1.17807 0 0 0 0
196.088 92.8889 -1.17807 0 0 0 0
196.088 94.6667 -1.17807 0 0 0 0
196.088 96.4444 -1.17807 0 0 0 0
196.088 98.2222 -1.17807 0 0 0 0
196.088 100 -1.17807 0 0 0 0
196.088 101.778 -1.17807 0 0 0 0
196.088 103.556 -1.17807 0 0 0 0
196.088 105.333 -1.17807 0 0 0 0
196.088 107.111 -1.17807 0 0 0 0
196.088 108.889 -1.17807 0 0 0 0
196.088 110.667 -1.17807 0 0 0 0
196.088 112.444 -1.17807 0 0 0 0
196.088 114.222 -1.17807 0 0 0 0
196.088 116 -1.17807 0 0 0 0
196.088 117.778 -1.17807 0 0 0 0
196.088 119.556 -1.17807 0 0 0 0
196.088 121.333 -1.17807 0 0 0 0
196.088 123.111 -1.17807 149.59 5.52243 57.7341 -544.185
196.088 124.889 -1.17807 150.091 5.39136 56.1192 -300.257
196.088 126.667 -1.17807 150.412 5.24218 54.8612 -11.0935
196.088 128.444 -1.17807 150.632 5.08011 53.7606 146.949
196.088 130.222 -1.17807 150.923 4.7098 52.8637 333.991
196.088 132 -1.17807 151.342 4.01935 52.0043 288.228
196.088 133.778 -1.17807 151.691 3.64407 51.3459 407.795
196.088 135.556 -1.17807 152.095 3.60283 50.7337 547.658
196.088 137.333 -1.17807 152.345 3.2183 50.1614 359.491
196.088 139.111 -1.17807 152.557 2.98504 49.5115 429.1
196.088 140.889 -1.17807 152.648 2.81085 48.8828 375.678
196.088 142.667 -1.17807 153.207 2.44805 48.2851 -71.2418
196.088 144.444 -1.17807 153.49 2.02348 47.8129 161.057
196.088 146.222 -1.17807 153.453 1.63221 47.2836 58.7986
196.088 148 -1.17807 153.444 1.54274 46.8395 207.17
196.088 149.778 -1.17807 153.767 1.19191 46.4439 101.065
196.088 151.556 -1.17807 153.65 1.3347 46.0115 280.373
196.088 153.333 -1.17807 153.836 0.997698 45.6041 376.194
196.088 155.111 -1.17807 153.907 0.894322 45.2868 274.959
196.088 156.889 -1.17807 153.718 0.718374 44.9078 116.568
196.088 158.667 -1.17807 153.83 0.590986 44.591 90.3183
196.088 160.444 -1.17807 153.73 0.359422 44.1772 49.594
196.088 162.222 -1.17807 153.876 0.335959 43.8208 66.2969
196.088 164 -1.17807 153.815 0.162694 43.3948 -27.4644
196.088 165.778 -1.17807 153.806 0.261255 43.053 39.9615
196.088 167.556 -1.17807 153.723 0.275858 42.7016 64.6019
196.088 169.333 -1.17807 153.85 0.521533 42.5047 61.4251
196.088 171.111 -1.17807 153.495 0.0250595 42.1876 -370.111
196.088 172.889 -1.17807 0 0 0 0
196.088 174.667 -1.17807 0 0 0 0
196.088 176.444 -1.17807 0 0 0 0
196.088 178.222 -1.17807 0 0 0 0
196.088 180 -1.17807 0 0 0 0
196.088 34.2222 -0.202468 0 0 0 0
196.088 36 -0.202468 0 0 0 0
196.088 37.7778 -0.202468 0 0 0 0
196.088 39.5556 -0.202468 0 0 0 0
196.088 41.3333 -0.202468 0 0 0 0
196.088 43.1111 -0.202468 0 0 0 0
196.088 44.8889 -0.202468 0 0 0 0
196.088 46.6667 -0.202468 0 0 0 0
196.088 48.4445 -0.202468 0 0 0 0
196.088 50.2222 -0.202468 0 0 0 0
196.088 52 -0.202468 0 0 0 0
196.088 53.7778 -0.202468 0 0 0 0
196.088 55.5556 -0.202468 0 0 0 0
196.088 57.3333 -0.202468 0 0 0 0
196.088 59.1111 -0.202468 0 0 0 0
196.088 60.8889 -0.202468 0 0 0 0
196.088 62.6667 -0.202468 0 0 0 0
196.088 64.4445 -0.202468 0 0 0 0
196.088 66.2222 -0.202468 0 0 0 0
196.088 68 -0.202468 0 0 0 0
196.088 69.7778 -0.202468 0 0 0 0
196.088 71.5556 -0.202468 0 0 0 0
196.088 73.3333 -0.202468 0 0 0 0
196.088 75.1111 -0.202468 0 0 0 0
196.088 76.8889 -0.202468 0 0 0 0
196.088 78.6667 -0.202468 0 0 0 0
196.088 80.4445 -0.202468 0 0 0 0
196.088 82.2222 -0.202468 0 0 0 0
196.088 84 -0.202468 0 0 0 0
196.088 85.7778 -0.202468 0 0 0 0
196.088 87.5556 -0.202468 0 0 0 0
196.088 89.3333 -0.202468 0 0 0 0
196.088 91.1111 -0.202468 0 0 0 0
196.088 92.8889 -0.202468 0 0 0 0
196.088 94.6667 -0.202468 0 0 0 0
196.088 96.4444 -0.202468 0 0 0 0
196.088 98.2222 -0.202468 0 0 0 0
196.088 100 -0.202468 0 0 0 0
196.088 101.778 -0.202468 0 0 0 0
196.088 103.556 -0.202468 0 0 0 0
196.088 105.333 -0.202468 0 0 0 0
196.088 107.111 -0.202468 0 0 0 0
196.088 108.889 -0.202468 0 0 0 0
196.088 110.667 -0.202468 0 0 0 0
196.088 112.444 -0.202468 0 0 0 0
196.088 114.222 -0.202468 0 0 0 0
196.088 116 -0.202468 0 0 0 0
196.088 117.778 -0.202468 0 0 0 0
196.088 119.556 -0.202468 149.177 4.92645 62.0428 -1080.99
196.088 121.333 -0.202468 149.677 4.91146 59.7986 -648.419
196.088 123.111 -0.202468 149.949 5.16723 57.8467 -382.071
196.088 124.889 -0.202468 150.379 4.8961 56.2472 -51.9215
196.088 126.667 -0.202468 150.723 4.60573 54.9654 102.29
196.088 128.444 -0.202468 151.054 4.38857 53.9261 234.1
196.088 130.222 -0.202468 151.533 3.90211 53.0759 361.239
196.088 132 -0.202468 152.019 3.32174 52.2945 227.204
196.088 133.778 -0.202468 152.221 2.89763 51.5562 149.338
196.088 135.556 -0.202468 152.504 2.74347 50.8877 406.447
196.088 137.333 -0.202468 152.858 2.53217 50.3141 361.21
196.088 139.111 -0.202468 153.136 2.21562 49.6498 390.38
196.088 140.889 -0.202468 153.204 2.10787 49.0527 310.896
196.088 142.667 -0.202468 153.577 2.22394 48.4859 46.8905
196.088 144.444 -0.202468 153.72 1.59151 47.9963 198.012
196.088 146.222 -0.202468 153.747 1.30779 47.5095 61.0158
196.088 148 -0.202468 153.884 1.11025 47.0511 161.613
196.088 149.778 -0.202468 154.068 0.866146 46.6497 76.8273
196.088 151.556 -0.202468 153.991 0.8307 46.2069 207.033
196.088 153.333 -0.202468 154.107 0.431802 45.7999 258.629
196.088 155.111 -0.202468 154.189 0.435039 45.44 129.361
196.088 156.889 -0.202468 154.07 0.413755 45.0122 104.983
196.088 158.667 -0.202468 154.12 0.302372 44.6687 93.2749
196.088 160.444 -0.202468 154.014 0.0996713 44.2959 -7.37773
196.088 162.222 -0.202468 154.009 0.0566252 43.927 -12.1161
196.088 164 -0.202468 154.077 -0.0211605 43.4957 -66.5456
196.088 165.778 -0.202468 153.997 0.0320864 43.193 -34.6126
196.088 167.556 -0.202468 154.044 0.0623618 42.8822 -0.710186
196.088 169.333 -0.202468 154.067 0.320549 42.6704 115.733
196.088 171.111 -0.202468 154.115 0.212145 42.435 -126.787
196.088 172.889 -0.202468 0 0 0 0
196.088 174.667 -0.202468 0 0 0 0
196.088 176.444 -0.202468 0 0 0 0
196.088 178.222 -0.202468 0 0 0 0
196.088 180 -0.202468 0 0 0 0
196.088 34.2222 0.773132 0 0 0 0
196.088 36 0.773132 0 0 0 0
196.088 37.7778 0.773132 0 0 0 0
196.088 39.5556 0.773132 0 0 0 0
196.088 41.3333 0.773132 0 0 0 0
196.088 43.1111 0.773132 0 0 0 0
196.088 44.8889 0.773132 0 0 0 0
196.088 46.6667 0.773132 0 0 0 0
196.088 48.4445 0.773132 0 0 0 0
196.088 50.2222 0.773132 0 0 0 0
196.088 52 0.773132 0 0 0 0
196.088 53.7778 0.773132 0 0 0 0
196.088 55.5556 0.773132 0 0 0 0
196.088 57.3333 0.773132 0 0 0 0
196.088 59.1111 0.773132 0 0 0 0
196.088 60.8889 0.773132 0 0 0 0
196.088 62.6667 0.773132 0 0 0 0
196.088 64.4445 0.773132 0 0 0 0
196.088 66.2222 0.773132 0 0 0 0
196.088 68 0.773132 0 0 0 0
196.088 69.7778 0.773132 0 0 0 0
196.088 71.5556 0.773132 0 0 0 0
196.088 73.3333 0.773132 0 0 0 0
196.088 75.1111 0.773132 0 0 0 0
196.088 76.8889 0.773132 0 0 0 0
196.088 78.6667 0.773132 0 0 0 0
196.088 80.4445 0.773132 0 0 0 0
196.088 82.2222 0.773132 0 0 0 0
196.088 84 0.773132 0 0 0 0
196.088 85.7778 0.773132 0 0 0 0
196.088 87.5556 0.773132 0 0 0 0
196.088 89.3333 0.773132 0 0 0 0
196.088 91.1111 0.773132 0 0 0 0
196.088 92.8889 0.773132 0 0 0 0
196.088 94.6667 0.773132 0 0 0 0
196.088 96.4444 0.773132 0 0 0 0
196.088 98.2222 0.773132 0 0 0 0
196.088 100 0.773132 0 0 0 0
196.088 101.778 0.773132 0 0 0 0
196.088 103.556 0.773132 0 0 0 0
196.088 105.333 0.773132 0 0 0 0
196.088 107.111 0.773132 0 0 0 0
196.088 108.889 0.773132 0 0 0 0
196.088 110.667 0.773132 0 0 0 0
196.088 112.444 0.773132 0 0 0 0
196.088 114.222 0.773132 149.265 4.86276 68.5613 -1510.72
196.088 116 0.773132 149.301 5.09618 66.1512 -825.436
196.088 117.778 0.773132 149.296 4.87341 63.9508 -465.848
196.088 119.556 0.773132 149.501 4.74931 61.9262 -567.765
196.088 121.333 0.773132 150.155 4.39252 59.9307 -333.376
196.088 123.111 0.773132 150.471 4.31925 58.1294 11.4156
196.088 124.889 0.773132 150.877 3.91168 56.5663 130.461
196.088 126.667 0.773132 151.213 3.76863 55.2931 197.106
196.088 128.444 0.773132 151.635 3.58626 54.1738 291.742
196.088 130.222 0.773132 152.151 3.10968 53.2742 335.145
196.088 132 0.773132 152.537 2.74216 52.493 152.134
196.088 133.778 0.773132 152.686 2.58076 51.7036 0.588575
196.088 135.556 0.773132 152.881 2.12803 50.9913 200.947
196.088 137.333 0.773132 153.326 1.83407 50.3673 333.809
196.088 139.111 0.773132 153.599 1.53119 49.7299 258.587
196.088 140.889 0.773132 153.669 1.56559 49.1353 207.803
196.088 142.667 0.773132 153.748 1.77674 48.5755 264.903
196.088 144.444 0.773132 153.984 1.10121 48.0532 173.088
196.088 146.222 0.773132 154.116 0.994518 47.572 123.37
196.088 148 0.773132 154.225 0.755623 47.1329 194.388
196.088 149.778 0.773132 154.346 0.578786 46.8011 48.56
196.088 151.556 0.773132 154.234 0.464314 46.3686 138.838
196.088 153.333 0.773132 154.351 0.0721381 45.9708 68.0661
196.088 155.111 0.773132 154.393 0.209696 45.5812 0.112184
196.088 156.889 0.773132 154.355 0.090314 45.1097 46.252
196.088 158.667 0.773132 154.32 0.0158384 44.7082 115.614
196.088 160.444 0.773132 154.288 -0.033273 44.3504 -42.3898
196.088 162.222 0.773132 154.096 -0.0794754 43.9915 -36.4423
196.088 164 0.773132 154.228 -0.110213 43.6491 -78.3251
196.088 165.778 0.773132 154.087 -0.00784055 43.3017 -72.6583
196.088 167.556 0.773132 154.216 -0.00959121 42.9839 1.33343
196.088 169.333 0.773132 154.168 0.0502635 42.7095 180.927
196.088 171.111 0.773132 154.219 0.0141146 42.5172 142.6
196.088 172.889 0.773132 153.826 -0.249882 42.2209 -121.694
196.088 174.667 0.773132 152.912 -1.2491 41.8174 -969.153
196.088 176.444 0.773132 0 0 0 0
196.088 178.222 0.773132 0 0 0 0
196.088 180 0.773132 0 0 0 0
196.088 34.2222 1.74873 0 0 0 0
196.088 36 1.74873 0 0 0 0
196.088 37.7778 1.74873 0 0 0 0
196.088 39.5556 1.74873 0 0 0 0
196.088 41.3333 1.74873 0 0 0 0
196.088 43.1111 1.74873 0 0 0 0
196.088 44.8889 1.74873 0 0 0 0
196.088 46.6667 1.74873 0 0 0 0
196.088 48.4445 1.74873 0 0 0 0
196.088 50.2222 1.74873 0 0 0 0
196.088 52 1.74873 0 0 0 0
196.088 53.7778 1.74873 0 0 0 0
196.088 55.5556 1.74873 0 0 0 0
196.088 57.3333 1.74873 0 0 0 0
196.088 59.1111 1.74873 0 0 0 0
196.088 60.8889 1.74873 0 0 0 0
196.088 62.6667 1.74873 0 0 0 0
196.088 64.4445 1.74873 0 0 0 0
196.088 66.2222 1.74873 0 0 0 0
196.088 68 1.74873 0 0 0 0
196.088 69.7778 1.74873 0 0 0 0
196.088 71.5556 1.74873 0 0 0 0
196.088 73.3333 1.74873 0 0 0 0
196.088 75.1111 1.74873 0 0 0 0
196.088 76.8889 1.74873 0 0 0 0
196.088 78.6667 1.74873 0 0 0 0
196.088 80.4445 1.74873 0 0 0 0
196.088 82.2222 1.74873 0 0 0 0
196.088 84 1.74873 0 0 0 0
196.088 85.7778 1.74873 0 0 0 0
196.088 87.5556 1.74873 0 0 0 0
196.088 89.3333 1.74873 0 0 0 0
196.088 91.1111 1.74873 0 0 0 0
196.088 92.8889 1.74873 0 0 0 0
196.088 94.6667 1.74873 0 0 0 0
196.088 96.4444 1.74873 0 0 0 0
196.088 98.2222 1.74873 0 0 0 0
196.088 100 1.74873 0 0 0 0
196.088 101.778 1.74873 0 0 0 0
196.088 103.556 1.74873 0 0 0 0
196.088 105.333 1.74873 0 0 0 0
196.088 107.111 1.74873 0 0 0 0
196.088 108.889 1.74873 0 0 0 0
196.088 110.667 1.74873 149.511 3.9813 73.9415 -1963.1
196.088 112.444 1.74873 149.717 4.92814 70.5651 -845.837
196.088 114.222 1.74873 149.774 5.01418 67.9766 -727.469
196.088 116 1.74873 149.807 4.63657 65.9641 -53.6746
196.088 117.778 1.74873 150.07 4.16875 64.1284 -2.83435
196.088 119.556 1.74873 150.276 3.8278 62.2013 10.5796
196.088 121.333 1.74873 150.827 3.47803 60.2349 21.5252
196.088 123.111 1.74873 151.004 3.29889 58.4244 101.293
196.088 124.889 1.74873 151.388 3.08525 56.7678 18.0686
196.088 126.667 1.74873 151.834 2.90799 55.4259 123.625
196.088 128.444 1.74873 152.14 2.71123 54.3001 265.107
196.088 130.222 1.74873 152.582 2.32591 53.3896 274.916
196.088 132 1.74873 152.994 2.1631 52.5848 220.899
196.088 133.778 1.74873 153.218 2.07249 51.777 168.113
196.088 135.556 1.74873 153.339 1.61794 51.0955 136.691
196.088 137.333 1.74873 153.685 1.18851 50.4465 161.557
196.088 139.111 1.74873 153.912 1.03506 49.8167 97.5658
196.088 140.889 1.74873 154.112 1.06898 49.2146 114.109
196.088 142.667 1.74873 154.008 1.11314 48.6298 250.733
196.088 144.444 1.74873 154.305 0.703 48.1294 21.0903
196.088 146.222 1.74873 154.476 0.562096 47.6601 146.932
196.088 148 1.74873 154.514 0.307964 47.1992 123.145
196.088 149.778 1.74873 154.463 0.35202 46.808 -81.3862
196.088 151.556 1.74873 154.526 0.104081 46.4007 78.8201
196.088 153.333 1.74873 154.602 -0.133181 46.0808 -85.0957
196.088 155.111 1.74873 154.541 -0.0376705 45.6477 -38.9866
196.088 156.889 1.74873 154.551 -0.155512 45.1903 22.6871
196.088 158.667 1.74873 154.571 -0.339963 44.8178 152.189
196.088 160.444 1.74873 154.543 -0.210986 44.4767 61.5556
196.088 162.222 1.74873 154.266 -0.257076 44.1394 -0.205141
196.088 164 1.74873 154.308 -0.24683 43.7518 -8.44718
196.088 165.778 1.74873 154.182 -0.191142 43.3722 -37.8017
196.088 167.556 1.74873 154.245 -0.265275 43.0572 26.4798
196.088 169.333 1.74873 154.202 -0.288629 42.8006 149.276
196.088 171.111 1.74873 154.022 -0.334193 42.5775 146.714
196.088 172.889 1.74873 153.93 -0.32315 42.3416 34.6727
196.088 174.667 1.74873 153.707 -0.52506 42.167 -558.571
196.088 176.444 1.74873 0 0 0 0
196.088 178.222 1.74873 0 0 0 0
196.088 180 1.74873 0 0 0 0
196.088 34.2222 2.72433 0 0 0 0
196.088 36 2.72433 0 0 0 0
196.088 37.7778 2.72433 0 0 0 0
196.088 39.5556 2.72433 0 0 0 0
196.088 41.3333 2.72433 0 0 0 0
196.088 43.1111 2.72433 0 0 0 0
196.088 44.8889 2.72433 0 0 0 0
196.088 46.6667 2.72433 0 0 0 0
196.088 48.4445 2.72433 0 0 0 0
196.088 50.2222 2.72433 0 0 0 0
196.088 52 2.72433 0 0 0 0
196.088 53.7778 2.72433 0 0 0 0
196.088 55.5556 2.72433 0 0 0 0
196.088 57.3333 2.72433 0 0 0 0
196.088 59.1111 2.72433 0 0 0 0
196.088 60.8889 2.72433 0 0 0 0
196.088 62.6667 2.72433 0 0 0 0
196.088 64.4445 2.72433 0 0 0 0
196.088 66.2222 2.72433 0 0 0 0
196.088 68 2.72433 0 0 0 0
196.088 69.7778 2.72433 0 0 0 0
196.088 71.5556 2.72433 0 0 0 0
196.088 73.3333 2.72433 0 0 0 0
196.088 75.1111 2.72433 0 0 0 0
196.088 76.8889 2.72433 0 0 0 0
196.088 78.6667 2.72433 0 0 0 0
196.088 80.4445 2.72433 0 0 0 0
196.088 82.2222 2.72433 0 0 0 0
196.088 84 2.72433 0 0 0 0
196.088 85.7778 2.72433 0 0 0 0
196.088 87.5556 2.72433 0 0 0 0
196.088 89.3333 2.72433 0 0 0 0
196.088 91.1111 2.72433 0 0 0 0
196.088 92.8889 2.72433 0 0 0 0
196.088 94.6667 2.72433 0 0 0 0
196.088 96.4444 2.72433 0 0 0 0
196.088 98.2222 2.72433 0 0 0 0
196.088 100 2.72433 0 0 0 0
196.088 101.778 2.72433 0 0 0 0
196.088 103.556 2.72433 0 0 0 0
196.088 105.333 2.72433 148.987 -6.02782 84.8951 -5162.26
196.088 107.111 2.72433 150.152 0.203778 81.4589 -2254.91
196.088 108.889 2.72433 150.5 3.48842 77.5863 -497.278
196.088 110.667 2.72433 150.241 4.04333 73.3924 -1074.89
196.088 112.444 2.72433 150.416 4.11639 70.2174 -24.7947
196.088 114.222 2.72433 150.692 3.7576 68.0561 522.089
196.088 116 2.72433 150.652 3.08938 66.2625 596.887
196.088 117.778 2.72433 150.95 2.81427 64.4569 415.56
196.088 119.556 2.72433 151.189 2.59168 62.4937 204.79
196.088 121.333 2.72433 151.535 2.27753 60.4611 152.83
196.088 123.111 2.72433 151.7 2.21919 58.6289 132.093
196.088 124.889 2.72433 152.059 2.23113 56.9629 -12.1729
196.088 126.667 2.72433 152.513 2.17299 55.571 15.1895
196.088 128.444 2.72433 152.647 1.95134 54.4491 51.3703
196.088 130.222 2.72433 153 1.63207 53.468 163.012
196.088 132 2.72433 153.338 1.4263 52.6467 291.174
196.088 133.778 2.72433 153.657 1.43555 51.8195 279.353
196.088 135.556 2.72433 153.869 1.13106 51.1233 146.329
196.088 137.333 2.72433 154.081 0.816957 50.5057 87.7961
196.088 139.111 2.72433 154.249 0.664869 49.8664 19.007
196.088 140.889 2.72433 154.441 0.691682 49.2877 159.541
196.088 142.667 2.72433 154.237 0.691888 48.6875 110.379
196.088 144.444 2.72433 154.584 0.527829 48.1927 -80.8336
196.088 146.222 2.72433 154.74 0.197419 47.7335 76.9127
196.088 148 2.72433 154.786 0.0477904 47.3188 31.3933
196.088 149.778 2.72433 154.63 0.299445 46.8643 -49.3416
196.088 151.556 2.72433 154.803 -0.0886108 46.4319 58.9401
196.088 153.333 2.72433 154.815 -0.175115 46.0805 -42.637
196.088 155.111 2.72433 154.626 -0.202856 45.748 45.5317
196.088 156.889 2.72433 154.69 -0.409324 45.3332 1.57209
196.088 158.667 2.72433 154.817 -0.672779 44.9465 31.1279
196.088 160.444 2.72433 154.7 -0.525727 44.5882 141.392
196.088 162.222 2.72433 154.531 -0.476832 44.2265 32.1564
196.088 164 2.72433 154.44 -0.514698 43.8253 42.6603
196.088 165.778 2.72433 154.35 -0.315213 43.4951 63.6063
196.088 167.556 2.72433 154.282 -0.374987 43.1487 13.4639
196.088 169.333 2.72433 154.299 -0.504291 42.8761 59.9328
196.088 171.111 2.72433 154.078 -0.524009 42.6155 9.35868
196.088 172.889 2.72433 153.912 -0.542779 42.3938 53.4915
196.088 174.667 2.72433 153.946 -0.35088 42.2269 -219.569
196.088 176.444 2.72433 0 0 0 0
196.088 178.222 2.72433 0 0 0 0
196.088 180 2.72433 0 0 0 0
196.088 34.2222 3.69998 0 0 0 0
196.088 36 3.69998 0 0 0 0
196.088 37.7778 3.69998 0 0 0 0
196.088 39.5556 3.69998 0 0 0 0
196.088 41.3333 3.69998 0 0 0 0
196.088 43.1111 3.69998 0 0 0 0
196.088 44.8889 3.69998 0 0 0 0
196.088 46.6667 3.69998 0 0 0 0
196.088 48.4445 3.69998 0 0 0 0
196.088 50.2222 3.69998 0 0 0 0
196.088 52 3.69998 0 0 0 0
196.088 53.7778 3.69998 0 0 0 0
196.088 55.5556 3.69998 0 0 0 0
196.088 57.3333 3.69998 0 0 0 0
196.088 59.1111 3.69998 0 0 0 0
196.088 60.8889 3.69998 0 0 0 0
196.088 62.6667 3.69998 0 0 0 0
196.088 64.4445 3.69998 0 0 0 0
196.088 66.2222 3.69998 0 0 0 0
196.088 68 3.69998 0 0 0 0
196.088 69.7778 3.69998 0 0 0 0
196.088 71.5556 3.69998 0 0 0 0
196.088 73.3333 3.69998 0 0 0 0
196.088 75.1111 3.69998 0 0 0 0
196.088 76.8889 3.69998 0 0 0 0
196.088 78.6667 3.69998 0 0 0 0
196.088 80.4445 3.69998 0 0 0 0
196.088 82.2222 3.69998 0 0 0 0
196.088 84 3.69998 0 0 0 0
196.088 85.7778 3.69998 0 0 0 0
196.088 87.5556 3.69998 0 0 0 0
196.088 89.3333 3.69998 0 0 0 0
196.088 91.1111 3.69998 0 0 0 0
196.088 92.8889 3.69998 0 0 0 0
196.088 94.6667 3.69998 0 0 0 0
196.088 96.4444 3.69998 0 0 0 0
196.088 98.2222 3.69998 0 0 0 0
196.088 100 3.69998 0 0 0 0
196.088 101.778 3.69998 153.089 -10.5082 96.8532 -3215.65
196.088 103.556 3.69998 152.648 -7.49892 90.7086 -4233.97
196.088 105.333 3.69998 151.872 -2.87743 85.3655 -3550.14
196.088 107.111 3.69998 151.751 0.398482 81.5827 -826.726
196.088 108.889 3.69998 151.532 1.76045 77.3692 139.144
196.088 110.667 3.69998 151.396 2.03408 73.2642 256.569
196.088 112.444 3.69998 151.544 2.04756 70.2564 744.834
196.088 114.222 3.69998 151.817 1.82532 68.2135 988.174
196.088 116 3.69998 151.741 1.49694 66.4691 670.339
196.088 117.778 3.69998 151.836 1.28987 64.6432 500.854
196.088 119.556 3.69998 151.975 1.23501 62.6858 239.849
196.088 121.333 3.69998 152.166 1.05853 60.7209 38.1318
196.088 123.111 3.69998 152.507 1.12161 58.7715 -55.6777
196.088 124.889 3.69998 152.729 1.43107 57.1489 -43.0076
196.088 126.667 3.69998 153.014 1.49859 55.7269 61.2398
196.088 128.444 3.69998 153.012 1.45671 54.5839 3.71889
196.088 130.222 3.69998 153.348 1.01882 53.5765 45.1366
196.088 132 3.69998 153.604 0.690381 52.6491 114.239
196.088 133.778 3.69998 153.945 0.691481 51.8543 254.037
196.088 135.556 3.69998 154.284 0.611304 51.157 163.772
196.088 137.333 3.69998 154.446 0.327317 50.4996 106.308
196.088 139.111 3.69998 154.515 0.329631 49.8738 45.2321
196.088 140.889 3.69998 154.674 0.110789 49.3123 236.591
196.088 142.667 3.69998 154.613 0.296746 48.7115 151.001
196.088 144.444 3.69998 154.771 0.3371 48.2357 138.378
196.088 146.222 3.69998 154.806 -0.0675067 47.7914 121.757
196.088 148 3.69998 155.005 -0.23024 47.3891 60.7762
196.088 149.778 3.69998 154.961 -0.0383623 46.9644 139.525
196.088 151.556 3.69998 155.187 -0.441134 46.5547 177.217
196.088 153.333 3.69998 155.089 -0.425361 46.1432 50.7416
196.088 155.111 3.69998 154.889 -0.536573 45.8223 104.326
196.088 156.889 3.69998 154.879 -0.598379 45.4283 52.1255
196.088 158.667 3.69998 154.945 -0.809613 45.0739 -73.4985
196.088 160.444 3.69998 154.742 -0.882067 44.6877 66.7121
196.088 162.222 3.69998 154.672 -0.73844 44.3169 55.334
196.088 164 3.69998 154.587 -0.731405 43.9177 19.0412
196.088 165.778 3.69998 154.609 -0.686518 43.5561 138.454
196.088 167.556 3.69998 154.381 -0.6313 43.2525 38.373
196.088 169.333 3.69998 154.426 -0.698233 42.9398 30.3616
196.088 171.111 3.69998 154.253 -0.617102 42.6918 5.27587
196.088 172.889 3.69998 154.001 -0.640758 42.4639 30.0119
196.088 174.667 3.69998 154.272 -0.279841 42.2845 -39.0001
196.088 176.444 3.69998 0 0 0 0
196.088 178.222 3.69998 0 0 0 0
196.088 180 3.69998 0 0 0 0
196.088 34.2222 4.67559 0 0 0 0
196.088 36 4.67559 0 0 0 0
196.088 37.7778 4.67559 0 0 0 0
196.088 39.5556 4.67559 0 0 0 0
196.088 41.3333 4.67559 0 0 0 0
196.088 43.1111 4.67559 0 0 0 0
196.088 44.8889 4.67559 0 0 0 0
196.088 46.6667 4.67559 0 0 0 0
196.088 48.4445 4.67559 0 0 0 0
196.088 50.2222 4.67559 0 0 0 0
196.088 52 4.67559 0 0 0 0
196.088 53.7778 4.67559 0 0 0 0
196.088 55.5556 4.67559 0 0 0 0
196.088 57.3333 4.67559 0 0 0 0
196.088 59.1111 4.67559 0 0 0 0
196.088 60.8889 4.67559 0 0 0 0
196.088 62.6667 4.67559 0 0 0 0
196.088 64.4445 4.67559 0 0 0 0
196.088 66.2222 4.67559 0 0 0 0
196.088 68 4.67559 0 0 0 0
196.088 69.7778 4.67559 0 0 0 0
196.088 71.5556 4.67559 0 0 0 0
196.088 73.3333 4.67559 0 0 0 0
196.088 75.1111 4.67559 0 0 0 0
196.088 76.8889 4.67559 0 0 0 0
196.088 78.6667 4.67559 0 0 0 0
196.088 80.4445 4.67559 0 0 0 0
196.088 82.2222 4.67559 0 0 0 0
196.088 84 4.67559 0 0 0 0
196.088 85.7778 4.67559 0 0 0 0
196.088 87.5556 4.67559 0 0 0 0
196.088 89.3333 4.67559 0 0 0 0
196.088 91.1111 4.67559 0 0 0 0
196.088 92.8889 4.67559 0 0 0 0
196.088 94.6667 4.67559 0 0 0 0
196.088 96.4444 4.67559 0 0 0 0
196.088 98.2222 4.67559 163.183 -27.1539 107.617 964.996
196.088 100 4.67559 160.634 -17.7023 104.551 274.436
196.088 101.778 4.67559 156.931 -10.7426 98.4092 -2402.8
196.088 103.556 4.67559 154.993 -6.5208 91.1203 -2975.64
196.088 105.333 4.67559 154.012 -4.10957 85.5731 -882.024
196.088 107.111 4.67559 153.504 -2.57082 81.5288 404.043
196.088 108.889 4.67559 153.011 -1.34764 77.0476 460.209
196.088 110.667 4.67559 152.89 -0.361359 73.1095 428.636
196.088 112.444 4.67559 152.874 -0.109191 70.2618 691.994
196.088 114.222 4.67559 152.898 -0.248764 68.2868 888.882
196.088 116 4.67559 152.818 -0.177732 66.5472 598.115
196.088 117.778 4.67559 152.694 -0.239011 64.7508 369.765
196.088 119.556 4.67559 152.818 -0.0291911 62.7792 91.5354
196.088 121.333 4.67559 152.939 0.0546533 60.8202 -177.044
196.088 123.111 4.67559 153.239 0.367792 58.9473 -144.073
196.088 124.889 4.67559 153.329 0.644406 57.3009 -1.85259
196.088 126.667 4.67559 153.565 0.645624 55.8143 93.4428
196.088 128.444 4.67559 153.651 0.763777 54.5853 119.13
196.088 130.222 4.67559 153.856 0.482327 53.597 28.7307
196.088 132 4.67559 153.969 0.258379 52.6736 -41.6723
196.088 133.778 4.67559 154.188 0.121107 51.874 109.355
196.088 135.556 4.67559 154.509 0.0679339 51.2023 181.463
196.088 137.333 4.67559 154.744 -0.0947974 50.5205 65.3063
196.088 139.111 4.67559 154.84 -0.0748898 49.9038 143.747
196.088 140.889 4.67559 155.01 -0.40775 49.366 193.22
196.088 142.667 4.67559 155.082 -0.193676 48.7979 171.801
196.088 144.444 4.67559 154.969 -0.247204 48.2867 280.153
196.088 146.222 4.67559 155.048 -0.504709 47.8591 71.5782
196.088 148 4.67559 155.235 -0.524594 47.4943 19.8002
196.088 149.778 4.67559 155.119 -0.43066 47.0893 161.511
196.088 151.556 4.67559 155.424 -0.885145 46.6557 196.249
196.088 153.333 4.67559 155.185 -0.676123 46.2175 123.312
196.088 155.111 4.67559 155.096 -0.798705 45.8535 74.5863
196.088 156.889 4.67559 155.191 -0.921699 45.3928 62.0745
196.088 158.667 4.67559 155.038 -0.935863 45.0344 -59.7676
196.088 160.444 4.67559 154.824 -1.0714 44.7018 -94.4448
196.088 162.222 4.67559 154.746 -1.00732 44.3557 11.8592
196.088 164 4.67559 154.681 -0.969321 43.9759 -3.90499
196.088 165.778 4.67559 154.741 -0.950383 43.641 71.8887
196.088 167.556 4.67559 154.517 -0.788136 43.2898 42.008
196.088 169.333 4.67559 154.538 -0.87129 43.044 -28.423
196.088 171.111 4.67559 154.365 -0.795441 42.7989 57.8159
196.088 172.889 4.67559 154.112 -0.824835 42.5622 94.2895
196.088 174.667 4.67559 154.41 -0.471718 42.3893 245.604
196.088 176.444 4.67559 0 0 0 0
196.088 178.222 4.67559 0 0 0 0
196.088 180 4.67559 0 0 0 0
196.088 34.2222 5.6512 0 0 0 0
196.088 36 5.6512 0 0 0 0
196.088 37.7778 5.6512 0 0 0 0
196.088 39.5556 5.6512 0 0 0 0
196.088 41.3333 5.6512 0 0 0 0
196.088 43.1111 5.6512 0 0 0 0
196.088 44.8889 5.6512 0 0 0 0
196.088 46.6667 5.6512 0 0 0 0
196.088 48.4445 5.6512 0 0 0 0
196.088 50.2222 5.6512 0 0 0 0
196.088 52 5.6512 0 0 0 0
196.088 53.7778 5.6512 0 0 0 0
196.088 55.5556 5.6512 0 0 0 0
196.088 57.3333 5.6512 0 0 0 0
196.088 59.1111 5.6512 0 0 0 0
196.088 60.8889 5.6512 0 0 0 0
196.088 62.6667 5.6512 0 0 0 0
196.088 64.4445 5.6512 0 0 0 0
196.088 66.2222 5.6512 0 0 0 0
196.088 68 5.6512 0 0 0 0
196.088 69.7778 5.6512 0 0 0 0
196.088 71.5556 5.6512 0 0 0 0
196.088 73.3333 5.6512 0 0 0 0
196.088 75.1111 5.6512 0 0 0 0
196.088 76.8889 5.6512 0 0 0 0
196.088 78.6667 5.6512 0 0 0 0
196.088 80.4445 5.6512 0 0 0 0
196.088 82.2222 5.6512 0 0 0 0
196.088 84 5.6512 0 0 0 0
196.088 85.7778 5.6512 0 0 0 0
196.088 87.5556 5.6512 0 0 0 0
196.088 89.3333 5.6512 0 0 0 0
196.088 91.1111 5.6512 0 0 0 0
196.088 92.8889 5.6512 177.228 -53.2663 96.9944 7808.77
196.088 94.6667 5.6512 174.571 -48.7176 104.876 5404.9
196.088 96.4444 5.6512 171.028 -40.351 108.168 1657.24
196.088 98.2222 5.6512 166.938 -29.7779 107.437 991.977
196.088 100 5.6512 162.349 -20.4964 103.017 43.2604
196.088 101.778 5.6512 158.692 -13.1894 96.4151 -545.064
196.088 103.556 5.6512 156.8 -8.7381 89.9917 -485.8
196.088 105.333 5.6512 155.532 -6.42086 85.077 -180.41
196.088 107.111 5.6512 154.788 -5.06794 80.8263 -220.012
196.088 108.889 5.6512 154.297 -3.75729 76.4764 -163.147
196.088 110.667 5.6512 154.027 -2.52678 72.7793 173.523
196.088 112.444 5.6512 153.99 -1.94969 70.1547 433.105
196.088 114.222 5.6512 153.784 -1.94733 68.2419 511.677
196.088 116 5.6512 153.757 -1.61036 66.5071 386.718
196.088 117.778 5.6512 153.56 -1.49917 64.7174 90.6071
196.088 119.556 5.6512 153.549 -1.10097 62.7451 -59.0841
196.088 121.333 5.6512 153.639 -0.699219 60.8668 -220.955
196.088 123.111 5.6512 153.859 -0.528355 58.987 -81.3561
196.088 124.889 5.6512 153.783 -0.28443 57.2996 -22.3862
196.088 126.667 5.6512 154.022 -0.174239 55.7737 46.4513
196.088 128.444 5.6512 154.151 0.00725894 54.5687 180.553
196.088 130.222 5.6512 154.351 -0.0862128 53.6095 110.385
196.088 132 5.6512 154.424 -0.173738 52.6596 -40.8359
196.088 133.778 5.6512 154.461 -0.329214 51.885 -17.7393
196.088 135.556 5.6512 154.584 -0.485661 51.2094 69.6075
196.088 137.333 5.6512 154.883 -0.512813 50.6009 53.9497
196.088 139.111 5.6512 155.107 -0.58434 49.9417 90.9278
196.088 140.889 5.6512 155.276 -0.873046 49.3882 60.4973
196.088 142.667 5.6512 155.389 -0.630867 48.8675 161.834
196.088 144.444 5.6512 155.104 -0.724816 48.321 135.624
196.088 146.222 5.6512 155.156 -0.641971 47.9087 6.93352
196.088 148 5.6512 155.364 -0.691273 47.5517 57.1648
196.088 149.778 5.6512 155.31 -0.813656 47.0934 177.168
196.088 151.556 5.6512 155.469 -1.30256 46.6715 97.1106
196.088 153.333 5.6512 155.244 -1.10627 46.2605 89.9295
196.088 155.111 5.6512 155.329 -1.13463 45.8817 82.7914
196.088 156.889 5.6512 155.25 -1.16895 45.4808 -34.8507
196.088 158.667 5.6512 155.072 -1.07226 45.111 -83.1019
196.088 160.444 5.6512 154.977 -1.0703 44.7548 -219.024
196.088 162.222 5.6512 154.865 -1.15989 44.3742 -60.8527
196.088 164 5.6512 154.903 -1.11595 44.0187 -9.03576
196.088 165.778 5.6512 154.84 -1.20326 43.683 -32.8323
196.088 167.556 5.6512 154.702 -1.04094 43.3394 9.65898
196.088 169.333 5.6512 154.658 -0.912212 43.0454 -28.0662
196.088 171.111 5.6512 154.53 -0.994283 42.9057 74.4495
196.088 172.889 5.6512 154.328 -1.04949 42.7477 69.046
196.088 174.667 5.6512 154.273 -0.948866 42.5766 340.505
196.088 176.444 5.6512 0 0 0 0
196.088 178.222 5.6512 0 0 0 0
196.088 180 5.6512 0 0 0 0
196.088 34.2222 6.62681 0 0 0 0
196.088 36 6.62681 0 0 0 0
196.088 37.7778 6.62681 0 0 0 0
196.088 39.5556 6.62681 0 0 0 0
196.088 41.3333 6.62681 0 0 0 0
196.088 43.1111 6.62681 0 0 0 0
196.088 44.8889 6.62681 0 0 0 0
196.088 46.6667 6.62681 0 0 0 0
196.088 48.4445 6.62681 0 0 0 0
196.088 50.2222 6.62681 0 0 0 0
196.088 52 6.62681 0 0 0 0
196.088 53.7778 6.62681 0 0 0 0
196.088 55.5556 6.62681 0 0 0 0
196.088 57.3333 6.62681 0 0 0 0
196.088 59.1111 6.62681 0 0 0 0
196.088 60.8889 6.62681 0 0 0 0
196.088 62.6667 6.62681 0 0 0 0
196.088 64.4445 6.62681 0 0 0 0
196.088 66.2222 6.62681 0 0 0 0
196.088 68 6.62681 0 0 0 0
196.088 69.7778 6.62681 0 0 0 0
196.088 71.5556 6.62681 0 0 0 0
196.088 73.3333 6.62681 0 0 0 0
196.088 75.1111 6.62681 0 0 0 0
196.088 76.8889 6.62681 0 0 0 0
196.088 78.6667 6.62681 0 0 0 0
196.088 80.4445 6.62681 0 0 0 0
196.088 82.2222 6.62681 0 0 0 0
196.088 84 6.62681 0 0 0 0
196.088 85.7778 6.62681 0 0 0 0
196.088 87.5556 6.62681 0 0 0 0
196.088 89.3333 6.62681 187.107 -65.4156 76.7916 6743.44
196.088 91.1111 6.62681 184.226 -60.9154 87.5689 8206.99
196.088 92.8889 6.62681 181.518 -56.5594 97.6079 6641.89