TITLE = "PIV data, model ID: 1, wind tunnel: TWG"
VARIABLES = "x", "y", "z", "u", "v", "w", "vorticity"
ZONE I=83, J=62, F=Point, T="xi = 0.5"
245.11 34.0555 -1.05612 0 0 0 0
245.11 35.8333 -1.05612 0 0 0 0
245.11 37.6111 -1.05612 0 0 0 0
245.11 39.3889 -1.05612 0 0 0 0
245.11 41.1666 -1.05612 0 0 0 0
245.11 42.9444 -1.05612 0 0 0 0
245.11 44.7222 -1.05612 0 0 0 0
245.11 46.5 -1.05612 0 0 0 0
245.11 48.2778 -1.05612 0 0 0 0
245.11 50.0555 -1.05612 0 0 0 0
245.11 51.8333 -1.05612 0 0 0 0
245.11 53.6111 -1.05612 0 0 0 0
245.11 55.3889 -1.05612 0 0 0 0
245.11 57.1666 -1.05612 0 0 0 0
245.11 58.9444 -1.05612 0 0 0 0
245.11 60.7222 -1.05612 0 0 0 0
245.11 62.5 -1.05612 0 0 0 0
245.11 64.2778 -1.05612 0 0 0 0
245.11 66.0555 -1.05612 0 0 0 0
245.11 67.8333 -1.05612 0 0 0 0
245.11 69.6111 -1.05612 0 0 0 0
245.11 71.3889 -1.05612 0 0 0 0
245.11 73.1666 -1.05612 0 0 0 0
245.11 74.9444 -1.05612 0 0 0 0
245.11 76.7222 -1.05612 0 0 0 0
245.11 78.5 -1.05612 0 0 0 0
245.11 80.2778 -1.05612 0 0 0 0
245.11 82.0555 -1.05612 0 0 0 0
245.11 83.8333 -1.05612 0 0 0 0
245.11 85.6111 -1.05612 0 0 0 0
245.11 87.3889 -1.05612 0 0 0 0
245.11 89.1667 -1.05612 0 0 0 0
245.11 90.9444 -1.05612 0 0 0 0
245.11 92.7222 -1.05612 0 0 0 0
245.11 94.5 -1.05612 0 0 0 0
245.11 96.2778 -1.05612 0 0 0 0
245.11 98.0556 -1.05612 0 0 0 0
245.11 99.8333 -1.05612 0 0 0 0
245.11 101.611 -1.05612 0 0 0 0
245.11 103.389 -1.05612 0 0 0 0
245.11 105.167 -1.05612 0 0 0 0
245.11 106.944 -1.05612 0 0 0 0
245.11 108.722 -1.05612 0 0 0 0
245.11 110.5 -1.05612 0 0 0 0
245.11 112.278 -1.05612 0 0 0 0
245.11 114.056 -1.05612 0 0 0 0
245.11 115.833 -1.05612 0 0 0 0
245.11 117.611 -1.05612 0 0 0 0
245.11 119.389 -1.05612 0 0 0 0
245.11 121.167 -1.05612 0 0 0 0
245.11 122.944 -1.05612 0 0 0 0
245.11 124.722 -1.05612 0 0 0 0
245.11 126.5 -1.05612 0 0 0 0
245.11 128.278 -1.05612 0 0 0 0
245.11 130.056 -1.05612 0 0 0 0
245.11 131.833 -1.05612 0 0 0 0
245.11 133.611 -1.05612 0 0 0 0
245.11 135.389 -1.05612 0 0 0 0
245.11 137.167 -1.05612 0 0 0 0
245.11 138.944 -1.05612 0 0 0 0
245.11 140.722 -1.05612 0 0 0 0
245.11 142.5 -1.05612 0 0 0 0
245.11 144.278 -1.05612 0 0 0 0
245.11 146.056 -1.05612 0 0 0 0
245.11 147.833 -1.05612 150.194 4.61144 59.1582 -482.395
245.11 149.611 -1.05612 150.835 4.16351 57.8671 -81.1818
245.11 151.389 -1.05612 151.272 4.07535 56.7524 50.6966
245.11 153.167 -1.05612 151.636 3.85798 55.5681 -58.294
245.11 154.944 -1.05612 152.053 3.59792 54.6718 110.549
245.11 156.722 -1.05612 152.314 3.28171 53.6829 266.189
245.11 158.5 -1.05612 152.752 2.71995 52.968 259.541
245.11 160.278 -1.05612 152.998 2.25003 52.0507 207.755
245.11 162.056 -1.05612 153.251 1.96573 51.2708 325.508
245.11 163.833 -1.05612 153.32 1.54736 50.5357 146.876
245.11 165.611 -1.05612 153.523 1.35464 49.8819 212.207
245.11 167.389 -1.05612 153.861 0.855462 49.1828 165.466
245.11 169.167 -1.05612 153.967 0.679288 48.5478 226.073
245.11 170.944 -1.05612 154.111 0.307887 48.0228 97.5399
245.11 172.722 -1.05612 153.98 0.148139 47.5004 -15.4565
245.11 174.5 -1.05612 153.941 -0.0832991 47.1735 59.9757
245.11 176.278 -1.05612 153.821 -0.219109 46.7261 -5.29573
245.11 178.056 -1.05612 153.828 -0.202773 46.4102 -9.73995
245.11 179.833 -1.05612 153.845 -0.183663 45.9371 61.5629
245.11 34.0555 -0.0805166 0 0 0 0
245.11 35.8333 -0.0805166 0 0 0 0
245.11 37.6111 -0.0805166 0 0 0 0
245.11 39.3889 -0.0805166 0 0 0 0
245.11 41.1666 -0.0805166 0 0 0 0
245.11 42.9444 -0.0805166 0 0 0 0
245.11 44.7222 -0.0805166 0 0 0 0
245.11 46.5 -0.0805166 0 0 0 0
245.11 48.2778 -0.0805166 0 0 0 0
245.11 50.0555 -0.0805166 0 0 0 0
245.11 51.8333 -0.0805166 0 0 0 0
245.11 53.6111 -0.0805166 0 0 0 0
245.11 55.3889 -0.0805166 0 0 0 0
245.11 57.1666 -0.0805166 0 0 0 0
245.11 58.9444 -0.0805166 0 0 0 0
245.11 60.7222 -0.0805166 0 0 0 0
245.11 62.5 -0.0805166 0 0 0 0
245.11 64.2778 -0.0805166 0 0 0 0
245.11 66.0555 -0.0805166 0 0 0 0
245.11 67.8333 -0.0805166 0 0 0 0
245.11 69.6111 -0.0805166 0 0 0 0
245.11 71.3889 -0.0805166 0 0 0 0
245.11 73.1666 -0.0805166 0 0 0 0
245.11 74.9444 -0.0805166 0 0 0 0
245.11 76.7222 -0.0805166 0 0 0 0
245.11 78.5 -0.0805166 0 0 0 0
245.11 80.2778 -0.0805166 0 0 0 0
245.11 82.0555 -0.0805166 0 0 0 0
245.11 83.8333 -0.0805166 0 0 0 0
245.11 85.6111 -0.0805166 0 0 0 0
245.11 87.3889 -0.0805166 0 0 0 0
245.11 89.1667 -0.0805166 0 0 0 0
245.11 90.9444 -0.0805166 0 0 0 0
245.11 92.7222 -0.0805166 0 0 0 0
245.11 94.5 -0.0805166 0 0 0 0
245.11 96.2778 -0.0805166 0 0 0 0
245.11 98.0556 -0.0805166 0 0 0 0
245.11 99.8333 -0.0805166 0 0 0 0
245.11 101.611 -0.0805166 0 0 0 0
245.11 103.389 -0.0805166 0 0 0 0
245.11 105.167 -0.0805166 0 0 0 0
245.11 106.944 -0.0805166 0 0 0 0
245.11 108.722 -0.0805166 0 0 0 0
245.11 110.5 -0.0805166 0 0 0 0
245.11 112.278 -0.0805166 0 0 0 0
245.11 114.056 -0.0805166 0 0 0 0
245.11 115.833 -0.0805166 0 0 0 0
245.11 117.611 -0.0805166 0 0 0 0
245.11 119.389 -0.0805166 0 0 0 0
245.11 121.167 -0.0805166 0 0 0 0
245.11 122.944 -0.0805166 0 0 0 0
245.11 124.722 -0.0805166 0 0 0 0
245.11 126.5 -0.0805166 0 0 0 0
245.11 128.278 -0.0805166 0 0 0 0
245.11 130.056 -0.0805166 0 0 0 0
245.11 131.833 -0.0805166 0 0 0 0
245.11 133.611 -0.0805166 0 0 0 0
245.11 135.389 -0.0805166 0 0 0 0
245.11 137.167 -0.0805166 0 0 0 0
245.11 138.944 -0.0805166 0 0 0 0
245.11 140.722 -0.0805166 0 0 0 0
245.11 142.5 -0.0805166 150.022 6.14333 65.1783 -660.551
245.11 144.278 -0.0805166 150.089 5.3793 63.1746 -673.782
245.11 146.056 -0.0805166 150.344 4.91713 61.2605 -449.418
245.11 147.833 -0.0805166 150.73 4.37343 59.6576 -346.455
245.11 149.611 -0.0805166 151.086 3.58267 58.3514 -156.478
245.11 151.389 -0.0805166 151.501 3.39515 57.1245 41.8802
245.11 153.167 -0.0805166 152.172 3.34387 56.0796 0.38507
245.11 154.944 -0.0805166 152.654 2.97271 55.0634 108.332
245.11 156.722 -0.0805166 152.884 2.55457 54.0045 232.927
245.11 158.5 -0.0805166 153.346 2.01894 53.0815 179.986
245.11 160.278 -0.0805166 153.619 1.58171 52.2185 163.524
245.11 162.056 -0.0805166 153.724 1.2324 51.4464 215.418
245.11 163.833 -0.0805166 153.753 1.02291 50.6882 96.5816
245.11 165.611 -0.0805166 153.912 0.776436 49.9923 137.11
245.11 167.389 -0.0805166 154.219 0.328017 49.3415 8.65634
245.11 169.167 -0.0805166 154.231 0.14039 48.7459 130.421
245.11 170.944 -0.0805166 154.369 -0.0747126 48.2172 84.2071
245.11 172.722 -0.0805166 154.177 -0.0697906 47.6978 16.7033
245.11 174.5 -0.0805166 154.251 -0.354244 47.3342 85.5589
245.11 176.278 -0.0805166 154.11 -0.423357 46.9924 -8.41484
245.11 178.056 -0.0805166 154.065 -0.409797 46.546 27.9567
245.11 179.833 -0.0805166 154.068 -0.503464 46.1902 109.979
245.11 34.0555 0.895083 0 0 0 0
245.11 35.8333 0.895083 0 0 0 0
245.11 37.6111 0.895083 0 0 0 0
245.11 39.3889 0.895083 0 0 0 0
245.11 41.1666 0.895083 0 0 0 0
245.11 42.9444 0.895083 0 0 0 0
245.11 44.7222 0.895083 0 0 0 0
245.11 46.5 0.895083 0 0 0 0
245.11 48.2778 0.895083 0 0 0 0
245.11 50.0555 0.895083 0 0 0 0
245.11 51.8333 0.895083 0 0 0 0
245.11 53.6111 0.895083 0 0 0 0
245.11 55.3889 0.895083 0 0 0 0
245.11 57.1666 0.895083 0 0 0 0
245.11 58.9444 0.895083 0 0 0 0
245.11 60.7222 0.895083 0 0 0 0
245.11 62.5 0.895083 0 0 0 0
245.11 64.2778 0.895083 0 0 0 0
245.11 66.0555 0.895083 0 0 0 0
245.11 67.8333 0.895083 0 0 0 0
245.11 69.6111 0.895083 0 0 0 0
245.11 71.3889 0.895083 0 0 0 0
245.11 73.1666 0.895083 0 0 0 0
245.11 74.9444 0.895083 0 0 0 0
245.11 76.7222 0.895083 0 0 0 0
245.11 78.5 0.895083 0 0 0 0
245.11 80.2778 0.895083 0 0 0 0
245.11 82.0555 0.895083 0 0 0 0
245.11 83.8333 0.895083 0 0 0 0
245.11 85.6111 0.895083 0 0 0 0
245.11 87.3889 0.895083 0 0 0 0
245.11 89.1667 0.895083 0 0 0 0
245.11 90.9444 0.895083 0 0 0 0
245.11 92.7222 0.895083 0 0 0 0
245.11 94.5 0.895083 0 0 0 0
245.11 96.2778 0.895083 0 0 0 0
245.11 98.0556 0.895083 0 0 0 0
245.11 99.8333 0.895083 0 0 0 0
245.11 101.611 0.895083 0 0 0 0
245.11 103.389 0.895083 0 0 0 0
245.11 105.167 0.895083 0 0 0 0
245.11 106.944 0.895083 0 0 0 0
245.11 108.722 0.895083 0 0 0 0
245.11 110.5 0.895083 0 0 0 0
245.11 112.278 0.895083 0 0 0 0
245.11 114.056 0.895083 0 0 0 0
245.11 115.833 0.895083 0 0 0 0
245.11 117.611 0.895083 0 0 0 0
245.11 119.389 0.895083 0 0 0 0
245.11 121.167 0.895083 0 0 0 0
245.11 122.944 0.895083 0 0 0 0
245.11 124.722 0.895083 0 0 0 0
245.11 126.5 0.895083 0 0 0 0
245.11 128.278 0.895083 0 0 0 0
245.11 130.056 0.895083 0 0 0 0
245.11 131.833 0.895083 0 0 0 0
245.11 133.611 0.895083 0 0 0 0
245.11 135.389 0.895083 0 0 0 0
245.11 137.167 0.895083 0 0 0 0
245.11 138.944 0.895083 149.568 6.55598 69.5574 -761.971
245.11 140.722 0.895083 149.95 6.21217 66.942 -530.269
245.11 142.5 0.895083 150.316 5.68832 64.8602 -245.426
245.11 144.278 0.895083 150.536 4.96178 63.2803 -162.208
245.11 146.056 0.895083 150.987 4.39041 61.762 -112.248
245.11 147.833 0.895083 151.409 3.69075 60.3321 -2.16403
245.11 149.611 0.895083 151.704 3.0789 58.905 -104.143
245.11 151.389 0.895083 152.095 2.74708 57.5301 0.00731086
245.11 153.167 0.895083 152.569 2.72597 56.2444 64.1355
245.11 154.944 0.895083 153.131 2.2476 55.1656 314.542
245.11 156.722 0.895083 153.401 1.73974 54.0965 326.216
245.11 158.5 0.895083 153.8 1.38877 53.1632 227.08
245.11 160.278 0.895083 154.125 1.03377 52.3433 109.568
245.11 162.056 0.895083 154.073 0.705483 51.532 121.112
245.11 163.833 0.895083 154.094 0.56081 50.8239 108.988
245.11 165.611 0.895083 154.143 0.348166 50.1703 58.6665
245.11 167.389 0.895083 154.46 0.154663 49.4934 -94.6998
245.11 169.167 0.895083 154.596 -0.192275 48.9551 5.81587
245.11 170.944 0.895083 154.668 -0.43168 48.4305 38.9065
245.11 172.722 0.895083 154.491 -0.368961 47.9492 36.844
245.11 174.5 0.895083 154.541 -0.6373 47.4561 32.4436
245.11 176.278 0.895083 154.374 -0.635181 47.1977 41.5083
245.11 178.056 0.895083 154.184 -0.697619 46.8428 43.6129
245.11 179.833 0.895083 154.259 -0.788935 46.3773 8.7504
245.11 34.0555 1.87068 0 0 0 0
245.11 35.8333 1.87068 0 0 0 0
245.11 37.6111 1.87068 0 0 0 0
245.11 39.3889 1.87068 0 0 0 0
245.11 41.1666 1.87068 0 0 0 0
245.11 42.9444 1.87068 0 0 0 0
245.11 44.7222 1.87068 0 0 0 0
245.11 46.5 1.87068 0 0 0 0
245.11 48.2778 1.87068 0 0 0 0
245.11 50.0555 1.87068 0 0 0 0
245.11 51.8333 1.87068 0 0 0 0
245.11 53.6111 1.87068 0 0 0 0
245.11 55.3889 1.87068 0 0 0 0
245.11 57.1666 1.87068 0 0 0 0
245.11 58.9444 1.87068 0 0 0 0
245.11 60.7222 1.87068 0 0 0 0
245.11 62.5 1.87068 0 0 0 0
245.11 64.2778 1.87068 0 0 0 0
245.11 66.0555 1.87068 0 0 0 0
245.11 67.8333 1.87068 0 0 0 0
245.11 69.6111 1.87068 0 0 0 0
245.11 71.3889 1.87068 0 0 0 0
245.11 73.1666 1.87068 0 0 0 0
245.11 74.9444 1.87068 0 0 0 0
245.11 76.7222 1.87068 0 0 0 0
245.11 78.5 1.87068 0 0 0 0
245.11 80.2778 1.87068 0 0 0 0
245.11 82.0555 1.87068 0 0 0 0
245.11 83.8333 1.87068 0 0 0 0
245.11 85.6111 1.87068 0 0 0 0
245.11 87.3889 1.87068 0 0 0 0
245.11 89.1667 1.87068 0 0 0 0
245.11 90.9444 1.87068 0 0 0 0
245.11 92.7222 1.87068 0 0 0 0
245.11 94.5 1.87068 0 0 0 0
245.11 96.2778 1.87068 0 0 0 0
245.11 98.0556 1.87068 0 0 0 0
245.11 99.8333 1.87068 0 0 0 0
245.11 101.611 1.87068 0 0 0 0
245.11 103.389 1.87068 0 0 0 0
245.11 105.167 1.87068 0 0 0 0
245.11 106.944 1.87068 0 0 0 0
245.11 108.722 1.87068 0 0 0 0
245.11 110.5 1.87068 0 0 0 0
245.11 112.278 1.87068 0 0 0 0
245.11 114.056 1.87068 0 0 0 0
245.11 115.833 1.87068 0 0 0 0
245.11 117.611 1.87068 0 0 0 0
245.11 119.389 1.87068 0 0 0 0
245.11 121.167 1.87068 0 0 0 0
245.11 122.944 1.87068 0 0 0 0
245.11 124.722 1.87068 0 0 0 0
245.11 126.5 1.87068 0 0 0 0
245.11 128.278 1.87068 0 0 0 0
245.11 130.056 1.87068 0 0 0 0
245.11 131.833 1.87068 0 0 0 0
245.11 133.611 1.87068 148.501 7.24333 78.8262 -312.07
245.11 135.389 1.87068 149.306 6.23662 75.2378 -919.085
245.11 137.167 1.87068 149.726 6.00129 71.8051 -539.954
245.11 138.944 1.87068 150.064 5.86387 69.0078 -363.05
245.11 140.722 1.87068 150.56 5.44081 66.9563 23.473
245.11 142.5 1.87068 150.855 4.61301 65.2877 348.986
245.11 144.278 1.87068 151.333 3.9958 63.7183 193.59
245.11 146.056 1.87068 151.741 3.518 62.1809 120.399
245.11 147.833 1.87068 152.181 2.80956 60.7382 134.354
245.11 149.611 1.87068 152.44 2.2484 59.2949 -23.7879
245.11 151.389 1.87068 152.777 1.93525 57.8836 -13.025
245.11 153.167 1.87068 153.219 1.92095 56.521 231.606
245.11 154.944 1.87068 153.703 1.18008 55.3853 328.643
245.11 156.722 1.87068 153.976 0.819331 54.2497 239.887
245.11 158.5 1.87068 154.21 0.613871 53.3412 174.058
245.11 160.278 1.87068 154.471 0.472872 52.5155 102.808
245.11 162.056 1.87068 154.514 0.16215 51.7228 42.7073
245.11 163.833 1.87068 154.489 0.0628713 50.9635 72.1531
245.11 165.611 1.87068 154.55 -0.0680865 50.2397 98.9848
245.11 167.389 1.87068 154.623 -0.153992 49.5699 74.2209
245.11 169.167 1.87068 154.697 -0.454341 49.0418 124.835
245.11 170.944 1.87068 154.811 -0.702725 48.5413 127.628
245.11 172.722 1.87068 154.73 -0.676339 48.1181 40.0916
245.11 174.5 1.87068 154.631 -0.8299 47.6571 7.85995
245.11 176.278 1.87068 154.424 -0.840869 47.4836 33.1298
245.11 178.056 1.87068 154.437 -0.945179 47.04 8.10783
245.11 179.833 1.87068 154.393 -1.03167 46.5679 -20.1745
245.11 34.0555 2.84628 0 0 0 0
245.11 35.8333 2.84628 0 0 0 0
245.11 37.6111 2.84628 0 0 0 0
245.11 39.3889 2.84628 0 0 0 0
245.11 41.1666 2.84628 0 0 0 0
245.11 42.9444 2.84628 0 0 0 0
245.11 44.7222 2.84628 0 0 0 0
245.11 46.5 2.84628 0 0 0 0
245.11 48.2778 2.84628 0 0 0 0
245.11 50.0555 2.84628 0 0 0 0
245.11 51.8333 2.84628 0 0 0 0
245.11 53.6111 2.84628 0 0 0 0
245.11 55.3889 2.84628 0 0 0 0
245.11 57.1666 2.84628 0 0 0 0
245.11 58.9444 2.84628 0 0 0 0
245.11 60.7222 2.84628 0 0 0 0
245.11 62.5 2.84628 0 0 0 0
245.11 64.2778 2.84628 0 0 0 0
245.11 66.0555 2.84628 0 0 0 0
245.11 67.8333 2.84628 0 0 0 0
245.11 69.6111 2.84628 0 0 0 0
245.11 71.3889 2.84628 0 0 0 0
245.11 73.1666 2.84628 0 0 0 0
245.11 74.9444 2.84628 0 0 0 0
245.11 76.7222 2.84628 0 0 0 0
245.11 78.5 2.84628 0 0 0 0
245.11 80.2778 2.84628 0 0 0 0
245.11 82.0555 2.84628 0 0 0 0
245.11 83.8333 2.84628 0 0 0 0
245.11 85.6111 2.84628 0 0 0 0
245.11 87.3889 2.84628 0 0 0 0
245.11 89.1667 2.84628 0 0 0 0
245.11 90.9444 2.84628 0 0 0 0
245.11 92.7222 2.84628 0 0 0 0
245.11 94.5 2.84628 0 0 0 0
245.11 96.2778 2.84628 0 0 0 0
245.11 98.0556 2.84628 0 0 0 0
245.11 99.8333 2.84628 0 0 0 0
245.11 101.611 2.84628 0 0 0 0
245.11 103.389 2.84628 0 0 0 0
245.11 105.167 2.84628 0 0 0 0
245.11 106.944 2.84628 0 0 0 0
245.11 108.722 2.84628 0 0 0 0
245.11 110.5 2.84628 0 0 0 0
245.11 112.278 2.84628 0 0 0 0
245.11 114.056 2.84628 0 0 0 0
245.11 115.833 2.84628 0 0 0 0
245.11 117.611 2.84628 0 0 0 0
245.11 119.389 2.84628 0 0 0 0
245.11 121.167 2.84628 0 0 0 0
245.11 122.944 2.84628 0 0 0 0
245.11 124.722 2.84628 0 0 0 0
245.11 126.5 2.84628 0 0 0 0
245.11 128.278 2.84628 0 0 0 0
245.11 130.056 2.84628 144.6 11.1748 84.8321 5783.67
245.11 131.833 2.84628 148.69 6.62476 82.2624 1632.47
245.11 133.611 2.84628 149.61 5.57881 78.806 -54.1893
245.11 135.389 2.84628 149.925 5.20702 75.1831 -584.105
245.11 137.167 2.84628 150.391 4.81837 71.7918 -243.968
245.11 138.944 2.84628 150.865 4.60305 69.2712 188.58
245.11 140.722 2.84628 151.485 4.12513 67.3422 411.756
245.11 142.5 2.84628 151.86 3.23067 65.6306 388.052
245.11 144.278 2.84628 152.281 2.87933 64.0505 230.969
245.11 146.056 2.84628 152.508 2.51983 62.4594 172.13
245.11 147.833 2.84628 153.023 1.84459 60.963 120.424
245.11 149.611 2.84628 153.359 1.55898 59.4818 -39.7696
245.11 151.389 2.84628 153.651 1.25044 58.0677 -62.3571
245.11 153.167 2.84628 153.768 0.902845 56.6896 199.399
245.11 154.944 2.84628 154.13 0.359728 55.6125 89.3291
245.11 156.722 2.84628 154.452 0.150064 54.4931 48.6783
245.11 158.5 2.84628 154.478 0.0975833 53.4534 39.5686
245.11 160.278 2.84628 154.762 -0.0548533 52.5899 121.431
245.11 162.056 2.84628 154.776 -0.229678 51.8081 8.67303
245.11 163.833 2.84628 154.796 -0.393989 51.0628 87.3308
245.11 165.611 2.84628 154.926 -0.609649 50.3639 126.434
245.11 167.389 2.84628 154.861 -0.647451 49.6439 166.161
245.11 169.167 2.84628 154.869 -1.00041 49.0955 170.424
245.11 170.944 2.84628 155.062 -1.18769 48.6029 75.8187
245.11 172.722 2.84628 154.82 -0.932353 48.1123 20.8283
245.11 174.5 2.84628 154.779 -1.00079 47.7938 49.0092
245.11 176.278 2.84628 154.556 -1.03843 47.4526 24.9158
245.11 178.056 2.84628 154.572 -1.21603 47.1326 -13.797
245.11 179.833 2.84628 154.478 -1.26795 46.7571 -29.9403
245.11 34.0555 3.82193 0 0 0 0
245.11 35.8333 3.82193 0 0 0 0
245.11 37.6111 3.82193 0 0 0 0
245.11 39.3889 3.82193 0 0 0 0
245.11 41.1666 3.82193 0 0 0 0
245.11 42.9444 3.82193 0 0 0 0
245.11 44.7222 3.82193 0 0 0 0
245.11 46.5 3.82193 0 0 0 0
245.11 48.2778 3.82193 0 0 0 0
245.11 50.0555 3.82193 0 0 0 0
245.11 51.8333 3.82193 0 0 0 0
245.11 53.6111 3.82193 0 0 0 0
245.11 55.3889 3.82193 0 0 0 0
245.11 57.1666 3.82193 0 0 0 0
245.11 58.9444 3.82193 0 0 0 0
245.11 60.7222 3.82193 0 0 0 0
245.11 62.5 3.82193 0 0 0 0
245.11 64.2778 3.82193 0 0 0 0
245.11 66.0555 3.82193 0 0 0 0
245.11 67.8333 3.82193 0 0 0 0
245.11 69.6111 3.82193 0 0 0 0
245.11 71.3889 3.82193 0 0 0 0
245.11 73.1666 3.82193 0 0 0 0
245.11 74.9444 3.82193 0 0 0 0
245.11 76.7222 3.82193 0 0 0 0
245.11 78.5 3.82193 0 0 0 0
245.11 80.2778 3.82193 0 0 0 0
245.11 82.0555 3.82193 0 0 0 0
245.11 83.8333 3.82193 0 0 0 0
245.11 85.6111 3.82193 0 0 0 0
245.11 87.3889 3.82193 0 0 0 0
245.11 89.1667 3.82193 0 0 0 0
245.11 90.9444 3.82193 0 0 0 0
245.11 92.7222 3.82193 0 0 0 0
245.11 94.5 3.82193 0 0 0 0
245.11 96.2778 3.82193 0 0 0 0
245.11 98.0556 3.82193 0 0 0 0
245.11 99.8333 3.82193 0 0 0 0
245.11 101.611 3.82193 0 0 0 0
245.11 103.389 3.82193 0 0 0 0
245.11 105.167 3.82193 0 0 0 0
245.11 106.944 3.82193 0 0 0 0
245.11 108.722 3.82193 0 0 0 0
245.11 110.5 3.82193 0 0 0 0
245.11 112.278 3.82193 0 0 0 0
245.11 114.056 3.82193 0 0 0 0
245.11 115.833 3.82193 0 0 0 0
245.11 117.611 3.82193 0 0 0 0
245.11 119.389 3.82193 0 0 0 0
245.11 121.167 3.82193 0 0 0 0
245.11 122.944 3.82193 0 0 0 0
245.11 124.722 3.82193 0 0 0 0
245.11 126.5 3.82193 0 0 0 0
245.11 128.278 3.82193 147.519 6.72239 91.4528 4013.64
245.11 130.056 3.82193 150.038 4.12166 87.0787 3160.53
245.11 131.833 3.82193 150.75 3.37829 82.9744 787.643
245.11 133.611 3.82193 150.655 3.46451 79.2659 285.944
245.11 135.389 3.82193 150.816 3.52752 75.5661 31.8637
245.11 137.167 3.82193 151.389 3.23244 72.217 87.3517
245.11 138.944 3.82193 151.882 3.05363 69.6003 414.481
245.11 140.722 3.82193 152.351 2.6397 67.5842 524.91
245.11 142.5 3.82193 152.762 2.0496 65.8367 267.702
245.11 144.278 3.82193 153.087 1.80502 64.2228 250.891
245.11 146.056 3.82193 153.256 1.48748 62.6154 262.344
245.11 147.833 3.82193 153.802 0.940253 61.0661 141.499
245.11 149.611 3.82193 154.043 0.73729 59.595 80.5977
245.11 151.389 3.82193 154.187 0.524787 58.1672 10.7918
245.11 153.167 3.82193 154.231 0.184276 56.8657 66.7653
245.11 154.944 3.82193 154.479 -0.199827 55.7887 -18.5909
245.11 156.722 3.82193 154.82 -0.460395 54.662 -36.8401
245.11 158.5 3.82193 154.847 -0.507662 53.5553 10.3697
245.11 160.278 3.82193 154.989 -0.666881 52.6445 139.953
245.11 162.056 3.82193 155.102 -0.69296 51.9047 154.678
245.11 163.833 3.82193 155.142 -0.900218 51.1429 133.841
245.11 165.611 3.82193 155.258 -1.09337 50.4228 52.5585
245.11 167.389 3.82193 155.079 -1.17421 49.7884 79.6005
245.11 169.167 3.82193 155.107 -1.35826 49.2501 -1.29311
245.11 170.944 3.82193 155.126 -1.39032 48.6508 -62.5344
245.11 172.722 3.82193 155.077 -1.16095 48.3243 24.8005
245.11 174.5 3.82193 155.051 -1.28752 47.8439 12.6998
245.11 176.278 3.82193 154.845 -1.2523 47.4857 53.3642
245.11 178.056 3.82193 154.741 -1.3 47.1801 -68.3657
245.11 179.833 3.82193 154.717 -1.38557 46.75 -138.109
245.11 34.0555 4.79754 0 0 0 0
245.11 35.8333 4.79754 0 0 0 0
245.11 37.6111 4.79754 0 0 0 0
245.11 39.3889 4.79754 0 0 0 0
245.11 41.1666 4.79754 0 0 0 0
245.11 42.9444 4.79754 0 0 0 0
245.11 44.7222 4.79754 0 0 0 0
245.11 46.5 4.79754 0 0 0 0
245.11 48.2778 4.79754 0 0 0 0
245.11 50.0555 4.79754 0 0 0 0
245.11 51.8333 4.79754 0 0 0 0
245.11 53.6111 4.79754 0 0 0 0
245.11 55.3889 4.79754 0 0 0 0
245.11 57.1666 4.79754 0 0 0 0
245.11 58.9444 4.79754 0 0 0 0
245.11 60.7222 4.79754 0 0 0 0
245.11 62.5 4.79754 0 0 0 0
245.11 64.2778 4.79754 0 0 0 0
245.11 66.0555 4.79754 0 0 0 0
245.11 67.8333 4.79754 0 0 0 0
245.11 69.6111 4.79754 0 0 0 0
245.11 71.3889 4.79754 0 0 0 0
245.11 73.1666 4.79754 0 0 0 0
245.11 74.9444 4.79754 0 0 0 0
245.11 76.7222 4.79754 0 0 0 0
245.11 78.5 4.79754 0 0 0 0
245.11 80.2778 4.79754 0 0 0 0
245.11 82.0555 4.79754 0 0 0 0
245.11 83.8333 4.79754 0 0 0 0
245.11 85.6111 4.79754 0 0 0 0
245.11 87.3889 4.79754 0 0 0 0
245.11 89.1667 4.79754 0 0 0 0
245.11 90.9444 4.79754 0 0 0 0
245.11 92.7222 4.79754 0 0 0 0
245.11 94.5 4.79754 0 0 0 0
245.11 96.2778 4.79754 0 0 0 0
245.11 98.0556 4.79754 0 0 0 0
245.11 99.8333 4.79754 0 0 0 0
245.11 101.611 4.79754 0 0 0 0
245.11 103.389 4.79754 0 0 0 0
245.11 105.167 4.79754 0 0 0 0
245.11 106.944 4.79754 0 0 0 0
245.11 108.722 4.79754 0 0 0 0
245.11 110.5 4.79754 0 0 0 0
245.11 112.278 4.79754 0 0 0 0
245.11 114.056 4.79754 0 0 0 0
245.11 115.833 4.79754 0 0 0 0
245.11 117.611 4.79754 0 0 0 0
245.11 119.389 4.79754 0 0 0 0
245.11 121.167 4.79754 0 0 0 0
245.11 122.944 4.79754 0 0 0 0
245.11 124.722 4.79754 144.018 7.80037 100.547 14837.9
245.11 126.5 4.79754 151.1 0.102419 98.8026 3783.18
245.11 128.278 4.79754 151.654 0.406396 92.9149 2146.35
245.11 130.056 4.79754 152.385 0.354184 87.3665 605.495
245.11 131.833 4.79754 152.282 0.799592 82.956 300.636
245.11 133.611 4.79754 151.96 0.955752 79.3202 467.82
245.11 135.389 4.79754 152.067 1.27695 75.8292 335.418
245.11 137.167 4.79754 152.605 1.37343 72.4143 212.74
245.11 138.944 4.79754 152.956 1.25145 69.7964 547.982
245.11 140.722 4.79754 153.31 1.03572 67.7303 572.105
245.11 142.5 4.79754 153.686 0.863835 65.9964 308.943
245.11 144.278 4.79754 153.796 0.622175 64.3692 349.563
245.11 146.056 4.79754 153.947 0.275287 62.7836 305.835
245.11 147.833 4.79754 154.462 -0.0893415 61.2253 205.355
245.11 149.611 4.79754 154.656 -0.188981 59.7443 160.461
245.11 151.389 4.79754 154.687 -0.268248 58.2986 90.5367
245.11 153.167 4.79754 154.708 -0.532937 56.8871 100.884
245.11 154.944 4.79754 154.864 -0.813558 55.7218 16.4429
245.11 156.722 4.79754 155.123 -1.00357 54.6723 -24.8908
245.11 158.5 4.79754 155.103 -1.0297 53.604 4.55495
245.11 160.278 4.79754 155.174 -1.23366 52.7276 64.4633
245.11 162.056 4.79754 155.384 -1.35569 51.9478 199.824
245.11 163.833 4.79754 155.584 -1.46853 51.1869 107.128
245.11 165.611 4.79754 155.622 -1.45545 50.4545 53.1621
245.11 167.389 4.79754 155.406 -1.44626 49.8663 10.574
245.11 169.167 4.79754 155.435 -1.62229 49.3076 -9.10032
245.11 170.944 4.79754 155.353 -1.57382 48.9107 -40.7119
245.11 172.722 4.79754 155.194 -1.42351 48.45 73.5484
245.11 174.5 4.79754 155.119 -1.48573 48.0068 6.81794
245.11 176.278 4.79754 155.081 -1.5068 47.6322 80.3107
245.11 178.056 4.79754 154.909 -1.48644 47.3633 -19.3062
245.11 179.833 4.79754 154.882 -1.47074 46.7639 -193.959
245.11 34.0555 5.77315 0 0 0 0
245.11 35.8333 5.77315 0 0 0 0
245.11 37.6111 5.77315 0 0 0 0
245.11 39.3889 5.77315 0 0 0 0
245.11 41.1666 5.77315 0 0 0 0
245.11 42.9444 5.77315 0 0 0 0
245.11 44.7222 5.77315 0 0 0 0
245.11 46.5 5.77315 0 0 0 0
245.11 48.2778 5.77315 0 0 0 0
245.11 50.0555 5.77315 0 0 0 0
245.11 51.8333 5.77315 0 0 0 0
245.11 53.6111 5.77315 0 0 0 0
245.11 55.3889 5.77315 0 0 0 0
245.11 57.1666 5.77315 0 0 0 0
245.11 58.9444 5.77315 0 0 0 0
245.11 60.7222 5.77315 0 0 0 0
245.11 62.5 5.77315 0 0 0 0
245.11 64.2778 5.77315 0 0 0 0
245.11 66.0555 5.77315 0 0 0 0
245.11 67.8333 5.77315 0 0 0 0
245.11 69.6111 5.77315 0 0 0 0
245.11 71.3889 5.77315 0 0 0 0
245.11 73.1666 5.77315 0 0 0 0
245.11 74.9444 5.77315 0 0 0 0
245.11 76.7222 5.77315 0 0 0 0
245.11 78.5 5.77315 0 0 0 0
245.11 80.2778 5.77315 0 0 0 0
245.11 82.0555 5.77315 0 0 0 0
245.11 83.8333 5.77315 0 0 0 0
245.11 85.6111 5.77315 0 0 0 0
245.11 87.3889 5.77315 0 0 0 0
245.11 89.1667 5.77315 0 0 0 0
245.11 90.9444 5.77315 0 0 0 0
245.11 92.7222 5.77315 0 0 0 0
245.11 94.5 5.77315 0 0 0 0
245.11 96.2778 5.77315 0 0 0 0
245.11 98.0556 5.77315 0 0 0 0
245.11 99.8333 5.77315 0 0 0 0
245.11 101.611 5.77315 0 0 0 0
245.11 103.389 5.77315 0 0 0 0
245.11 105.167 5.77315 0 0 0 0
245.11 106.944 5.77315 0 0 0 0
245.11 108.722 5.77315 0 0 0 0
245.11 110.5 5.77315 0 0 0 0
245.11 112.278 5.77315 0 0 0 0
245.11 114.056 5.77315 0 0 0 0
245.11 115.833 5.77315 0 0 0 0
245.11 117.611 5.77315 0 0 0 0
245.11 119.389 5.77315 0 0 0 0
245.11 121.167 5.77315 0 0 0 0
245.11 122.944 5.77315 155.314 -10.4836 113.792 3749.78
245.11 124.722 5.77315 154.489 -7.63282 106.583 6397.26
245.11 126.5 5.77315 154.355 -5.6824 99.4112 850.826
245.11 128.278 5.77315 153.964 -3.74074 92.8677 -38.5862
245.11 130.056 5.77315 153.96 -2.5259 86.9544 -169.793
245.11 131.833 5.77315 153.756 -1.62466 82.6067 247.759
245.11 133.611 5.77315 153.537 -1.35887 79.2481 335.025
245.11 135.389 5.77315 153.433 -0.916305 75.8512 162.069
245.11 137.167 5.77315 153.739 -0.493863 72.4911 166.202
245.11 138.944 5.77315 154.044 -0.586493 69.8597 338.24
245.11 140.722 5.77315 154.272 -0.561709 67.8196 357.694
245.11 142.5 5.77315 154.513 -0.397491 66.0783 281.075
245.11 144.278 5.77315 154.487 -0.639956 64.4004 269.998
245.11 146.056 5.77315 154.811 -0.834853 62.8791 225.199
245.11 147.833 5.77315 155.208 -1.12861 61.3555 106.018
245.11 149.611 5.77315 155.267 -1.18172 59.8313 54.9181
245.11 151.389 5.77315 155.112 -1.21965 58.3831 75.2554
245.11 153.167 5.77315 155.161 -1.42689 56.9564 113.256
245.11 154.944 5.77315 155.158 -1.44754 55.8348 -4.81294
245.11 156.722 5.77315 155.418 -1.57389 54.7141 13.3035
245.11 158.5 5.77315 155.347 -1.58363 53.6778 52.5572
245.11 160.278 5.77315 155.544 -1.70144 52.8113 -36.8671
245.11 162.056 5.77315 155.661 -1.9285 52.013 70.095
245.11 163.833 5.77315 155.855 -1.92887 51.2493 -11.653
245.11 165.611 5.77315 155.679 -1.92173 50.52 16.3552
245.11 167.389 5.77315 155.492 -1.82416 49.8846 43.3202
245.11 169.167 5.77315 155.571 -1.865 49.3808 -15.6588
245.11 170.944 5.77315 155.384 -1.78159 48.9573 -35.7972
245.11 172.722 5.77315 155.257 -1.80044 48.5633 113.707
245.11 174.5 5.77315 155.205 -1.74956 48.1835 79.3291
245.11 176.278 5.77315 155.243 -1.7621 47.7569 79.5922
245.11 178.056 5.77315 155.127 -1.73891 47.3706 51.8415
245.11 179.833 5.77315 155.063 -1.66528 46.8711 -52.3169
245.11 34.0555 6.74876 0 0 0 0
245.11 35.8333 6.74876 0 0 0 0
245.11 37.6111 6.74876 0 0 0 0
245.11 39.3889 6.74876 0 0 0 0
245.11 41.1666 6.74876 0 0 0 0
245.11 42.9444 6.74876 0 0 0 0
245.11 44.7222 6.74876 0 0 0 0
245.11 46.5 6.74876 0 0 0 0
245.11 48.2778 6.74876 0 0 0 0
245.11 50.0555 6.74876 0 0 0 0
245.11 51.8333 6.74876 0 0 0 0
245.11 53.6111 6.74876 0 0 0 0
245.11 55.3889 6.74876 0 0 0 0
245.11 57.1666 6.74876 0 0 0 0
245.11 58.9444 6.74876 0 0 0 0
245.11 60.7222 6.74876 0 0 0 0
245.11 62.5 6.74876 0 0 0 0
245.11 64.2778 6.74876 0 0 0 0
245.11 66.0555 6.74876 0 0 0 0
245.11 67.8333 6.74876 0 0 0 0
245.11 69.6111 6.74876 0 0 0 0
245.11 71.3889 6.74876 0 0 0 0
245.11 73.1666 6.74876 0 0 0 0
245.11 74.9444 6.74876 0 0 0 0
245.11 76.7222 6.74876 0 0 0 0
245.11 78.5 6.74876 0 0 0 0
245.11 80.2778 6.74876 0 0 0 0
245.11 82.0555 6.74876 0 0 0 0
245.11 83.8333 6.74876 0 0 0 0
245.11 85.6111 6.74876 0 0 0 0
245.11 87.3889 6.74876 0 0 0 0
245.11 89.1667 6.74876 0 0 0 0
245.11 90.9444 6.74876 0 0 0 0
245.11 92.7222 6.74876 0 0 0 0
245.11 94.5 6.74876 0 0 0 0
245.11 96.2778 6.74876 0 0 0 0
245.11 98.0556 6.74876 0 0 0 0
245.11 99.8333 6.74876 0 0 0 0
245.11 101.611 6.74876 0 0 0 0
245.11 103.389 6.74876 0 0 0 0
245.11 105.167 6.74876 0 0 0 0
245.11 106.944 6.74876 0 0 0 0
245.11 108.722 6.74876 0 0 0 0
245.11 110.5 6.74876 0 0 0 0
245.11 112.278 6.74876 0 0 0 0
245.11 114.056 6.74876 179.791 -63.7545 125.54 24727.9
245.11 115.833 6.74876 175.262 -53.8325 133.723 19249.5
245.11 117.611 6.74876 172.011 -45.3315 134.806 8238.63
245.11 119.389 6.74876 167.481 -34.8333 129.972 3059.28
245.11 121.167 6.74876 163.49 -25.9146 122.126 877.578
245.11 122.944 6.74876 159.62 -18.0987 113.213 1916.26
245.11 124.722 6.74876 157.074 -12.573 105.416 566.96
245.11 126.5 6.74876 155.982 -9.08348 98.4586 -490.353
245.11 128.278 6.74876 155.18 -6.35351 91.9268 -894.738
245.11 130.056 6.74876 155.12 -4.94643 86.308 -432.019
245.11 131.833 6.74876 154.904 -3.91357 82.3107 124.8
245.11 133.611 6.74876 154.837 -3.40478 79.0769 137.631
245.11 135.389 6.74876 154.643 -2.74693 75.7663 -180.197
245.11 137.167 6.74876 154.838 -2.2394 72.4225 -37.1037
245.11 138.944 6.74876 154.985 -1.97256 69.8599 81.8033
245.11 140.722 6.74876 155.052 -1.73712 67.8185 74.9289
245.11 142.5 6.74876 155.131 -1.56076 66.058 233.913
245.11 144.278 6.74876 155.167 -1.66009 64.4318 120.724
245.11 146.056 6.74876 155.506 -1.83537 62.8675 118.178
245.11 147.833 6.74876 155.77 -1.96904 61.3539 -2.83954
245.11 149.611 6.74876 155.577 -1.92713 59.8511 -113.794
245.11 151.389 6.74876 155.605 -1.99258 58.4475 -162.641
245.11 153.167 6.74876 155.72 -2.1526 57.0046 -50.082
245.11 154.944 6.74876 155.607 -2.03489 55.824 -105.419
245.11 156.722 6.74876 155.824 -2.2131 54.6061 -6.88368
245.11 158.5 6.74876 155.752 -2.17634 53.6629 40.9824
245.11 160.278 6.74876 155.925 -2.07522 52.7266 15.0918
245.11 162.056 6.74876 155.919 -2.34979 52.0306 24.0595
245.11 163.833 6.74876 156 -2.26525 51.2355 -42.2623
245.11 165.611 6.74876 155.853 -2.23619 50.5336 -32.4792
245.11 167.389 6.74876 155.716 -2.15588 49.9226 58.3033
245.11 169.167 6.74876 155.752 -2.1007 49.4407 19.661
245.11 170.944 6.74876 155.54 -1.95267 48.9584 -1.51968
245.11 172.722 6.74876 155.511 -2.06997 48.5279 88.9092
245.11 174.5 6.74876 155.33 -2.083 48.1693 99.506
245.11 176.278 6.74876 155.358 -2.10815 47.7763 103.112
245.11 178.056 6.74876 155.288 -2.07378 47.3355 69.204
245.11 179.833 6.74876 155.255 -1.91713 46.8657 12.1411
245.11 34.0555 7.72437 0 0 0 0
245.11 35.8333 7.72437 0 0 0 0
245.11 37.6111 7.72437 0 0 0 0
245.11 39.3889 7.72437 0 0 0 0
245.11 41.1666 7.72437 0 0 0 0
245.11 42.9444 7.72437 0 0 0 0
245.11 44.7222 7.72437 0 0 0 0