TITLE = "PIV data, model ID: 1, wind tunnel: TWG"
VARIABLES = "x", "y", "z", "u", "v", "w", "vorticity"
ZONE I=83, J=62, F=Point, T="xi = 0.6"
294.132 34.6666 -0.87319 0 0 0 0
294.132 36.4444 -0.87319 0 0 0 0
294.132 38.2222 -0.87319 0 0 0 0
294.132 40 -0.87319 0 0 0 0
294.132 41.7777 -0.87319 0 0 0 0
294.132 43.5555 -0.87319 0 0 0 0
294.132 45.3333 -0.87319 0 0 0 0
294.132 47.1111 -0.87319 0 0 0 0
294.132 48.8889 -0.87319 0 0 0 0
294.132 50.6666 -0.87319 0 0 0 0
294.132 52.4444 -0.87319 0 0 0 0
294.132 54.2222 -0.87319 0 0 0 0
294.132 56 -0.87319 0 0 0 0
294.132 57.7777 -0.87319 0 0 0 0
294.132 59.5555 -0.87319 0 0 0 0
294.132 61.3333 -0.87319 0 0 0 0
294.132 63.1111 -0.87319 0 0 0 0
294.132 64.8889 -0.87319 0 0 0 0
294.132 66.6666 -0.87319 0 0 0 0
294.132 68.4444 -0.87319 0 0 0 0
294.132 70.2222 -0.87319 0 0 0 0
294.132 72 -0.87319 0 0 0 0
294.132 73.7777 -0.87319 0 0 0 0
294.132 75.5555 -0.87319 0 0 0 0
294.132 77.3333 -0.87319 0 0 0 0
294.132 79.1111 -0.87319 0 0 0 0
294.132 80.8889 -0.87319 0 0 0 0
294.132 82.6666 -0.87319 0 0 0 0
294.132 84.4444 -0.87319 0 0 0 0
294.132 86.2222 -0.87319 0 0 0 0
294.132 88 -0.87319 0 0 0 0
294.132 89.7778 -0.87319 0 0 0 0
294.132 91.5556 -0.87319 0 0 0 0
294.132 93.3333 -0.87319 0 0 0 0
294.132 95.1111 -0.87319 0 0 0 0
294.132 96.8889 -0.87319 0 0 0 0
294.132 98.6667 -0.87319 0 0 0 0
294.132 100.444 -0.87319 0 0 0 0
294.132 102.222 -0.87319 0 0 0 0
294.132 104 -0.87319 0 0 0 0
294.132 105.778 -0.87319 0 0 0 0
294.132 107.556 -0.87319 0 0 0 0
294.132 109.333 -0.87319 0 0 0 0
294.132 111.111 -0.87319 0 0 0 0
294.132 112.889 -0.87319 0 0 0 0
294.132 114.667 -0.87319 0 0 0 0
294.132 116.444 -0.87319 0 0 0 0
294.132 118.222 -0.87319 0 0 0 0
294.132 120 -0.87319 0 0 0 0
294.132 121.778 -0.87319 0 0 0 0
294.132 123.556 -0.87319 0 0 0 0
294.132 125.333 -0.87319 0 0 0 0
294.132 127.111 -0.87319 0 0 0 0
294.132 128.889 -0.87319 0 0 0 0
294.132 130.667 -0.87319 0 0 0 0
294.132 132.444 -0.87319 0 0 0 0
294.132 134.222 -0.87319 0 0 0 0
294.132 136 -0.87319 0 0 0 0
294.132 137.778 -0.87319 0 0 0 0
294.132 139.556 -0.87319 0 0 0 0
294.132 141.333 -0.87319 0 0 0 0
294.132 143.111 -0.87319 0 0 0 0
294.132 144.889 -0.87319 0 0 0 0
294.132 146.667 -0.87319 0 0 0 0
294.132 148.444 -0.87319 0 0 0 0
294.132 150.222 -0.87319 0 0 0 0
294.132 152 -0.87319 0 0 0 0
294.132 153.778 -0.87319 0 0 0 0
294.132 155.556 -0.87319 0 0 0 0
294.132 157.333 -0.87319 0 0 0 0
294.132 159.111 -0.87319 0 0 0 0
294.132 160.889 -0.87319 0 0 0 0
294.132 162.667 -0.87319 0 0 0 0
294.132 164.444 -0.87319 0 0 0 0
294.132 166.222 -0.87319 0 0 0 0
294.132 168 -0.87319 0 0 0 0
294.132 169.778 -0.87319 148.582 8.19966 60.388 -586.137
294.132 171.556 -0.87319 148.834 7.27582 58.9696 -594.847
294.132 173.333 -0.87319 149.312 6.62804 57.7197 -469.776
294.132 175.111 -0.87319 149.548 6.29948 56.4961 -218.546
294.132 176.889 -0.87319 149.577 5.93067 55.3757 110.719
294.132 178.667 -0.87319 149.897 5.45372 54.3552 8.03172
294.132 180.444 -0.87319 150.106 5.00746 53.1975 -14.9702
294.132 34.6666 0.10241 0 0 0 0
294.132 36.4444 0.10241 0 0 0 0
294.132 38.2222 0.10241 0 0 0 0
294.132 40 0.10241 0 0 0 0
294.132 41.7777 0.10241 0 0 0 0
294.132 43.5555 0.10241 0 0 0 0
294.132 45.3333 0.10241 0 0 0 0
294.132 47.1111 0.10241 0 0 0 0
294.132 48.8889 0.10241 0 0 0 0
294.132 50.6666 0.10241 0 0 0 0
294.132 52.4444 0.10241 0 0 0 0
294.132 54.2222 0.10241 0 0 0 0
294.132 56 0.10241 0 0 0 0
294.132 57.7777 0.10241 0 0 0 0
294.132 59.5555 0.10241 0 0 0 0
294.132 61.3333 0.10241 0 0 0 0
294.132 63.1111 0.10241 0 0 0 0
294.132 64.8889 0.10241 0 0 0 0
294.132 66.6666 0.10241 0 0 0 0
294.132 68.4444 0.10241 0 0 0 0
294.132 70.2222 0.10241 0 0 0 0
294.132 72 0.10241 0 0 0 0
294.132 73.7777 0.10241 0 0 0 0
294.132 75.5555 0.10241 0 0 0 0
294.132 77.3333 0.10241 0 0 0 0
294.132 79.1111 0.10241 0 0 0 0
294.132 80.8889 0.10241 0 0 0 0
294.132 82.6666 0.10241 0 0 0 0
294.132 84.4444 0.10241 0 0 0 0
294.132 86.2222 0.10241 0 0 0 0
294.132 88 0.10241 0 0 0 0
294.132 89.7778 0.10241 0 0 0 0
294.132 91.5556 0.10241 0 0 0 0
294.132 93.3333 0.10241 0 0 0 0
294.132 95.1111 0.10241 0 0 0 0
294.132 96.8889 0.10241 0 0 0 0
294.132 98.6667 0.10241 0 0 0 0
294.132 100.444 0.10241 0 0 0 0
294.132 102.222 0.10241 0 0 0 0
294.132 104 0.10241 0 0 0 0
294.132 105.778 0.10241 0 0 0 0
294.132 107.556 0.10241 0 0 0 0
294.132 109.333 0.10241 0 0 0 0
294.132 111.111 0.10241 0 0 0 0
294.132 112.889 0.10241 0 0 0 0
294.132 114.667 0.10241 0 0 0 0
294.132 116.444 0.10241 0 0 0 0
294.132 118.222 0.10241 0 0 0 0
294.132 120 0.10241 0 0 0 0
294.132 121.778 0.10241 0 0 0 0
294.132 123.556 0.10241 0 0 0 0
294.132 125.333 0.10241 0 0 0 0
294.132 127.111 0.10241 0 0 0 0
294.132 128.889 0.10241 0 0 0 0
294.132 130.667 0.10241 0 0 0 0
294.132 132.444 0.10241 0 0 0 0
294.132 134.222 0.10241 0 0 0 0
294.132 136 0.10241 0 0 0 0
294.132 137.778 0.10241 0 0 0 0
294.132 139.556 0.10241 0 0 0 0
294.132 141.333 0.10241 0 0 0 0
294.132 143.111 0.10241 0 0 0 0
294.132 144.889 0.10241 0 0 0 0
294.132 146.667 0.10241 0 0 0 0
294.132 148.444 0.10241 0 0 0 0
294.132 150.222 0.10241 0 0 0 0
294.132 152 0.10241 0 0 0 0
294.132 153.778 0.10241 0 0 0 0
294.132 155.556 0.10241 0 0 0 0
294.132 157.333 0.10241 0 0 0 0
294.132 159.111 0.10241 0 0 0 0
294.132 160.889 0.10241 0 0 0 0
294.132 162.667 0.10241 0 0 0 0
294.132 164.444 0.10241 147.932 9.98913 65.7985 -670.745
294.132 166.222 0.10241 148.033 9.26663 63.7961 -628.568
294.132 168 0.10241 148.433 8.63503 62.0429 -321.499
294.132 169.778 0.10241 148.682 7.99321 60.6567 -361.115
294.132 171.556 0.10241 149.022 7.12389 59.3813 -228.438
294.132 173.333 0.10241 149.32 6.40755 58.1615 -201.009
294.132 175.111 0.10241 149.736 5.86961 56.9532 -47.2178
294.132 176.889 0.10241 150.064 5.23529 55.8279 52.1856
294.132 178.667 0.10241 150.433 4.84812 54.7581 35.819
294.132 180.444 0.10241 150.601 4.38647 53.6685 -4.68118
294.132 34.6666 1.07801 0 0 0 0
294.132 36.4444 1.07801 0 0 0 0
294.132 38.2222 1.07801 0 0 0 0
294.132 40 1.07801 0 0 0 0
294.132 41.7777 1.07801 0 0 0 0
294.132 43.5555 1.07801 0 0 0 0
294.132 45.3333 1.07801 0 0 0 0
294.132 47.1111 1.07801 0 0 0 0
294.132 48.8889 1.07801 0 0 0 0
294.132 50.6666 1.07801 0 0 0 0
294.132 52.4444 1.07801 0 0 0 0
294.132 54.2222 1.07801 0 0 0 0
294.132 56 1.07801 0 0 0 0
294.132 57.7777 1.07801 0 0 0 0
294.132 59.5555 1.07801 0 0 0 0
294.132 61.3333 1.07801 0 0 0 0
294.132 63.1111 1.07801 0 0 0 0
294.132 64.8889 1.07801 0 0 0 0
294.132 66.6666 1.07801 0 0 0 0
294.132 68.4444 1.07801 0 0 0 0
294.132 70.2222 1.07801 0 0 0 0
294.132 72 1.07801 0 0 0 0
294.132 73.7777 1.07801 0 0 0 0
294.132 75.5555 1.07801 0 0 0 0
294.132 77.3333 1.07801 0 0 0 0
294.132 79.1111 1.07801 0 0 0 0
294.132 80.8889 1.07801 0 0 0 0
294.132 82.6666 1.07801 0 0 0 0
294.132 84.4444 1.07801 0 0 0 0
294.132 86.2222 1.07801 0 0 0 0
294.132 88 1.07801 0 0 0 0
294.132 89.7778 1.07801 0 0 0 0
294.132 91.5556 1.07801 0 0 0 0
294.132 93.3333 1.07801 0 0 0 0
294.132 95.1111 1.07801 0 0 0 0
294.132 96.8889 1.07801 0 0 0 0
294.132 98.6667 1.07801 0 0 0 0
294.132 100.444 1.07801 0 0 0 0
294.132 102.222 1.07801 0 0 0 0
294.132 104 1.07801 0 0 0 0
294.132 105.778 1.07801 0 0 0 0
294.132 107.556 1.07801 0 0 0 0
294.132 109.333 1.07801 0 0 0 0
294.132 111.111 1.07801 0 0 0 0
294.132 112.889 1.07801 0 0 0 0
294.132 114.667 1.07801 0 0 0 0
294.132 116.444 1.07801 0 0 0 0
294.132 118.222 1.07801 0 0 0 0
294.132 120 1.07801 0 0 0 0
294.132 121.778 1.07801 0 0 0 0
294.132 123.556 1.07801 0 0 0 0
294.132 125.333 1.07801 0 0 0 0
294.132 127.111 1.07801 0 0 0 0
294.132 128.889 1.07801 0 0 0 0
294.132 130.667 1.07801 0 0 0 0
294.132 132.444 1.07801 0 0 0 0
294.132 134.222 1.07801 0 0 0 0
294.132 136 1.07801 0 0 0 0
294.132 137.778 1.07801 0 0 0 0
294.132 139.556 1.07801 0 0 0 0
294.132 141.333 1.07801 0 0 0 0
294.132 143.111 1.07801 0 0 0 0
294.132 144.889 1.07801 0 0 0 0
294.132 146.667 1.07801 0 0 0 0
294.132 148.444 1.07801 0 0 0 0
294.132 150.222 1.07801 0 0 0 0
294.132 152 1.07801 0 0 0 0
294.132 153.778 1.07801 0 0 0 0
294.132 155.556 1.07801 0 0 0 0
294.132 157.333 1.07801 0 0 0 0
294.132 159.111 1.07801 0 0 0 0
294.132 160.889 1.07801 147.011 10.9455 70.6558 -691.699
294.132 162.667 1.07801 147.744 10.1394 67.8005 -616.089
294.132 164.444 1.07801 148.143 9.54447 65.4319 -498.3
294.132 166.222 1.07801 148.342 8.8495 63.7913 -196.396
294.132 168 1.07801 148.79 8.08738 62.4506 2.99091
294.132 169.778 1.07801 149.037 7.44383 61.1275 45.1457
294.132 171.556 1.07801 149.302 6.35203 59.8661 28.7939
294.132 173.333 1.07801 149.581 5.68756 58.6059 -45.515
294.132 175.111 1.07801 150.044 5.11115 57.324 -19.0546
294.132 176.889 1.07801 150.451 4.62438 56.1085 -41.2953
294.132 178.667 1.07801 150.924 4.19862 55.0361 19.0351
294.132 180.444 1.07801 151.027 3.82018 53.9305 -45.7628
294.132 34.6666 2.05361 0 0 0 0
294.132 36.4444 2.05361 0 0 0 0
294.132 38.2222 2.05361 0 0 0 0
294.132 40 2.05361 0 0 0 0
294.132 41.7777 2.05361 0 0 0 0
294.132 43.5555 2.05361 0 0 0 0
294.132 45.3333 2.05361 0 0 0 0
294.132 47.1111 2.05361 0 0 0 0
294.132 48.8889 2.05361 0 0 0 0
294.132 50.6666 2.05361 0 0 0 0
294.132 52.4444 2.05361 0 0 0 0
294.132 54.2222 2.05361 0 0 0 0
294.132 56 2.05361 0 0 0 0
294.132 57.7777 2.05361 0 0 0 0
294.132 59.5555 2.05361 0 0 0 0
294.132 61.3333 2.05361 0 0 0 0
294.132 63.1111 2.05361 0 0 0 0
294.132 64.8889 2.05361 0 0 0 0
294.132 66.6666 2.05361 0 0 0 0
294.132 68.4444 2.05361 0 0 0 0
294.132 70.2222 2.05361 0 0 0 0
294.132 72 2.05361 0 0 0 0
294.132 73.7777 2.05361 0 0 0 0
294.132 75.5555 2.05361 0 0 0 0
294.132 77.3333 2.05361 0 0 0 0
294.132 79.1111 2.05361 0 0 0 0
294.132 80.8889 2.05361 0 0 0 0
294.132 82.6666 2.05361 0 0 0 0
294.132 84.4444 2.05361 0 0 0 0
294.132 86.2222 2.05361 0 0 0 0
294.132 88 2.05361 0 0 0 0
294.132 89.7778 2.05361 0 0 0 0
294.132 91.5556 2.05361 0 0 0 0
294.132 93.3333 2.05361 0 0 0 0
294.132 95.1111 2.05361 0 0 0 0
294.132 96.8889 2.05361 0 0 0 0
294.132 98.6667 2.05361 0 0 0 0
294.132 100.444 2.05361 0 0 0 0
294.132 102.222 2.05361 0 0 0 0
294.132 104 2.05361 0 0 0 0
294.132 105.778 2.05361 0 0 0 0
294.132 107.556 2.05361 0 0 0 0
294.132 109.333 2.05361 0 0 0 0
294.132 111.111 2.05361 0 0 0 0
294.132 112.889 2.05361 0 0 0 0
294.132 114.667 2.05361 0 0 0 0
294.132 116.444 2.05361 0 0 0 0
294.132 118.222 2.05361 0 0 0 0
294.132 120 2.05361 0 0 0 0
294.132 121.778 2.05361 0 0 0 0
294.132 123.556 2.05361 0 0 0 0
294.132 125.333 2.05361 0 0 0 0
294.132 127.111 2.05361 0 0 0 0
294.132 128.889 2.05361 0 0 0 0
294.132 130.667 2.05361 0 0 0 0
294.132 132.444 2.05361 0 0 0 0
294.132 134.222 2.05361 0 0 0 0
294.132 136 2.05361 0 0 0 0
294.132 137.778 2.05361 0 0 0 0
294.132 139.556 2.05361 0 0 0 0
294.132 141.333 2.05361 0 0 0 0
294.132 143.111 2.05361 0 0 0 0
294.132 144.889 2.05361 0 0 0 0
294.132 146.667 2.05361 0 0 0 0
294.132 148.444 2.05361 0 0 0 0
294.132 150.222 2.05361 0 0 0 0
294.132 152 2.05361 0 0 0 0
294.132 153.778 2.05361 0 0 0 0
294.132 155.556 2.05361 143.88 15.1561 79.1869 2452.88
294.132 157.333 2.05361 146.312 11.5942 76.7796 -16.9738
294.132 159.111 2.05361 146.918 10.5056 73.5685 -639.022
294.132 160.889 2.05361 147.54 10.0536 70.4712 -550.11
294.132 162.667 2.05361 147.956 9.30686 67.8671 -271.7
294.132 164.444 2.05361 148.459 8.76092 65.863 0.798055
294.132 166.222 2.05361 148.811 8.01398 64.2312 169.407
294.132 168 2.05361 149.317 7.16755 62.835 224.444
294.132 169.778 2.05361 149.519 6.48699 61.522 243.846
294.132 171.556 2.05361 149.872 5.6837 60.2467 65.6011
294.132 173.333 2.05361 150.095 5.1011 58.9756 -34.6123
294.132 175.111 2.05361 150.438 4.53645 57.6797 -48.5169
294.132 176.889 2.05361 150.827 4.06048 56.4719 -39.4137
294.132 178.667 2.05361 151.174 3.61556 55.352 -39.1306
294.132 180.444 2.05361 151.405 3.26178 54.2877 -58.2276
294.132 34.6666 3.02921 0 0 0 0
294.132 36.4444 3.02921 0 0 0 0
294.132 38.2222 3.02921 0 0 0 0
294.132 40 3.02921 0 0 0 0
294.132 41.7777 3.02921 0 0 0 0
294.132 43.5555 3.02921 0 0 0 0
294.132 45.3333 3.02921 0 0 0 0
294.132 47.1111 3.02921 0 0 0 0
294.132 48.8889 3.02921 0 0 0 0
294.132 50.6666 3.02921 0 0 0 0
294.132 52.4444 3.02921 0 0 0 0
294.132 54.2222 3.02921 0 0 0 0
294.132 56 3.02921 0 0 0 0
294.132 57.7777 3.02921 0 0 0 0
294.132 59.5555 3.02921 0 0 0 0
294.132 61.3333 3.02921 0 0 0 0
294.132 63.1111 3.02921 0 0 0 0
294.132 64.8889 3.02921 0 0 0 0
294.132 66.6666 3.02921 0 0 0 0
294.132 68.4444 3.02921 0 0 0 0
294.132 70.2222 3.02921 0 0 0 0
294.132 72 3.02921 0 0 0 0
294.132 73.7777 3.02921 0 0 0 0
294.132 75.5555 3.02921 0 0 0 0
294.132 77.3333 3.02921 0 0 0 0
294.132 79.1111 3.02921 0 0 0 0
294.132 80.8889 3.02921 0 0 0 0
294.132 82.6666 3.02921 0 0 0 0
294.132 84.4444 3.02921 0 0 0 0
294.132 86.2222 3.02921 0 0 0 0
294.132 88 3.02921 0 0 0 0
294.132 89.7778 3.02921 0 0 0 0
294.132 91.5556 3.02921 0 0 0 0
294.132 93.3333 3.02921 0 0 0 0
294.132 95.1111 3.02921 0 0 0 0
294.132 96.8889 3.02921 0 0 0 0
294.132 98.6667 3.02921 0 0 0 0
294.132 100.444 3.02921 0 0 0 0
294.132 102.222 3.02921 0 0 0 0
294.132 104 3.02921 0 0 0 0
294.132 105.778 3.02921 0 0 0 0
294.132 107.556 3.02921 0 0 0 0
294.132 109.333 3.02921 0 0 0 0
294.132 111.111 3.02921 0 0 0 0
294.132 112.889 3.02921 0 0 0 0
294.132 114.667 3.02921 0 0 0 0
294.132 116.444 3.02921 0 0 0 0
294.132 118.222 3.02921 0 0 0 0
294.132 120 3.02921 0 0 0 0
294.132 121.778 3.02921 0 0 0 0
294.132 123.556 3.02921 0 0 0 0
294.132 125.333 3.02921 0 0 0 0
294.132 127.111 3.02921 0 0 0 0
294.132 128.889 3.02921 0 0 0 0
294.132 130.667 3.02921 0 0 0 0
294.132 132.444 3.02921 0 0 0 0
294.132 134.222 3.02921 0 0 0 0
294.132 136 3.02921 0 0 0 0
294.132 137.778 3.02921 0 0 0 0
294.132 139.556 3.02921 0 0 0 0
294.132 141.333 3.02921 0 0 0 0
294.132 143.111 3.02921 0 0 0 0
294.132 144.889 3.02921 0 0 0 0
294.132 146.667 3.02921 0 0 0 0
294.132 148.444 3.02921 0 0 0 0
294.132 150.222 3.02921 0 0 0 0
294.132 152 3.02921 0 0 0 0
294.132 153.778 3.02921 144.795 13.9269 82.9239 1748.6
294.132 155.556 3.02921 146.756 11.4418 79.9843 1226.14
294.132 157.333 3.02921 147.283 10.0689 76.9465 -107.075
294.132 159.111 3.02921 147.443 9.3983 73.9585 -320.909
294.132 160.889 3.02921 147.965 8.89048 71.1265 -167.739
294.132 162.667 3.02921 148.624 8.14028 68.5743 17.3719
294.132 164.444 3.02921 149.101 7.54731 66.4899 250.257
294.132 166.222 3.02921 149.49 6.85747 64.7675 350.517
294.132 168 3.02921 149.9 6.16289 63.2852 311.149
294.132 169.778 3.02921 150.098 5.54782 61.9268 252.492
294.132 171.556 3.02921 150.351 4.82641 60.5386 141.253
294.132 173.333 3.02921 150.705 4.34617 59.2467 117.134
294.132 175.111 3.02921 150.867 3.83202 57.9812 53.1998
294.132 176.889 3.02921 151.219 3.42406 56.7528 -27.5909
294.132 178.667 3.02921 151.529 3.07615 55.6418 -57.7049
294.132 180.444 3.02921 151.655 2.76516 54.5057 -97.6729
294.132 34.6666 4.00486 0 0 0 0
294.132 36.4444 4.00486 0 0 0 0
294.132 38.2222 4.00486 0 0 0 0
294.132 40 4.00486 0 0 0 0
294.132 41.7777 4.00486 0 0 0 0
294.132 43.5555 4.00486 0 0 0 0
294.132 45.3333 4.00486 0 0 0 0
294.132 47.1111 4.00486 0 0 0 0
294.132 48.8889 4.00486 0 0 0 0
294.132 50.6666 4.00486 0 0 0 0
294.132 52.4444 4.00486 0 0 0 0
294.132 54.2222 4.00486 0 0 0 0
294.132 56 4.00486 0 0 0 0
294.132 57.7777 4.00486 0 0 0 0
294.132 59.5555 4.00486 0 0 0 0
294.132 61.3333 4.00486 0 0 0 0
294.132 63.1111 4.00486 0 0 0 0
294.132 64.8889 4.00486 0 0 0 0
294.132 66.6666 4.00486 0 0 0 0
294.132 68.4444 4.00486 0 0 0 0
294.132 70.2222 4.00486 0 0 0 0
294.132 72 4.00486 0 0 0 0
294.132 73.7777 4.00486 0 0 0 0
294.132 75.5555 4.00486 0 0 0 0
294.132 77.3333 4.00486 0 0 0 0
294.132 79.1111 4.00486 0 0 0 0
294.132 80.8889 4.00486 0 0 0 0
294.132 82.6666 4.00486 0 0 0 0
294.132 84.4444 4.00486 0 0 0 0
294.132 86.2222 4.00486 0 0 0 0
294.132 88 4.00486 0 0 0 0
294.132 89.7778 4.00486 0 0 0 0
294.132 91.5556 4.00486 0 0 0 0
294.132 93.3333 4.00486 0 0 0 0
294.132 95.1111 4.00486 0 0 0 0
294.132 96.8889 4.00486 0 0 0 0
294.132 98.6667 4.00486 0 0 0 0
294.132 100.444 4.00486 0 0 0 0
294.132 102.222 4.00486 0 0 0 0
294.132 104 4.00486 0 0 0 0
294.132 105.778 4.00486 0 0 0 0
294.132 107.556 4.00486 0 0 0 0
294.132 109.333 4.00486 0 0 0 0
294.132 111.111 4.00486 0 0 0 0
294.132 112.889 4.00486 0 0 0 0
294.132 114.667 4.00486 0 0 0 0
294.132 116.444 4.00486 0 0 0 0
294.132 118.222 4.00486 0 0 0 0
294.132 120 4.00486 0 0 0 0
294.132 121.778 4.00486 0 0 0 0
294.132 123.556 4.00486 0 0 0 0
294.132 125.333 4.00486 0 0 0 0
294.132 127.111 4.00486 0 0 0 0
294.132 128.889 4.00486 0 0 0 0
294.132 130.667 4.00486 0 0 0 0
294.132 132.444 4.00486 0 0 0 0
294.132 134.222 4.00486 0 0 0 0
294.132 136 4.00486 0 0 0 0
294.132 137.778 4.00486 0 0 0 0
294.132 139.556 4.00486 0 0 0 0
294.132 141.333 4.00486 0 0 0 0
294.132 143.111 4.00486 0 0 0 0
294.132 144.889 4.00486 0 0 0 0
294.132 146.667 4.00486 139.395 19.0723 104.173 5394.52
294.132 148.444 4.00486 137.204 22.2169 95.7363 10244.5
294.132 150.222 4.00486 139.253 20.0399 90.2875 10161.9
294.132 152 4.00486 145.985 11.8109 88.8557 2412.11
294.132 153.778 4.00486 147.157 10.6079 84.0828 752.96
294.132 155.556 4.00486 147.895 9.48275 80.642 237.48
294.132 157.333 4.00486 148.072 8.49572 77.6014 -12.9847
294.132 159.111 4.00486 148.308 7.93822 74.6872 -19.7008
294.132 160.889 4.00486 148.699 7.42648 71.8807 0.838528
294.132 162.667 4.00486 149.466 6.72805 69.2152 111.247
294.132 164.444 4.00486 149.944 6.18315 66.9795 328.799
294.132 166.222 4.00486 150.324 5.57155 65.195 420.276
294.132 168 4.00486 150.464 5.00167 63.7065 402.671
294.132 169.778 4.00486 150.661 4.4872 62.2922 320.598
294.132 171.556 4.00486 150.997 3.93704 60.8668 212.186
294.132 173.333 4.00486 151.172 3.46885 59.5439 93.3619
294.132 175.111 4.00486 151.179 3.06419 58.182 36.5883
294.132 176.889 4.00486 151.489 2.83064 56.9762 -15.9778
294.132 178.667 4.00486 151.813 2.49478 55.8729 -39.3905
294.132 180.444 4.00486 151.899 2.20486 54.7052 -131.289
294.132 34.6666 4.98047 0 0 0 0
294.132 36.4444 4.98047 0 0 0 0
294.132 38.2222 4.98047 0 0 0 0
294.132 40 4.98047 0 0 0 0
294.132 41.7777 4.98047 0 0 0 0
294.132 43.5555 4.98047 0 0 0 0
294.132 45.3333 4.98047 0 0 0 0
294.132 47.1111 4.98047 0 0 0 0
294.132 48.8889 4.98047 0 0 0 0
294.132 50.6666 4.98047 0 0 0 0
294.132 52.4444 4.98047 0 0 0 0
294.132 54.2222 4.98047 0 0 0 0
294.132 56 4.98047 0 0 0 0
294.132 57.7777 4.98047 0 0 0 0
294.132 59.5555 4.98047 0 0 0 0
294.132 61.3333 4.98047 0 0 0 0
294.132 63.1111 4.98047 0 0 0 0
294.132 64.8889 4.98047 0 0 0 0
294.132 66.6666 4.98047 0 0 0 0
294.132 68.4444 4.98047 0 0 0 0
294.132 70.2222 4.98047 0 0 0 0
294.132 72 4.98047 0 0 0 0
294.132 73.7777 4.98047 0 0 0 0
294.132 75.5555 4.98047 0 0 0 0
294.132 77.3333 4.98047 0 0 0 0
294.132 79.1111 4.98047 0 0 0 0
294.132 80.8889 4.98047 0 0 0 0
294.132 82.6666 4.98047 0 0 0 0
294.132 84.4444 4.98047 0 0 0 0
294.132 86.2222 4.98047 0 0 0 0
294.132 88 4.98047 0 0 0 0
294.132 89.7778 4.98047 0 0 0 0
294.132 91.5556 4.98047 0 0 0 0
294.132 93.3333 4.98047 0 0 0 0
294.132 95.1111 4.98047 0 0 0 0
294.132 96.8889 4.98047 0 0 0 0
294.132 98.6667 4.98047 0 0 0 0
294.132 100.444 4.98047 0 0 0 0
294.132 102.222 4.98047 0 0 0 0
294.132 104 4.98047 0 0 0 0
294.132 105.778 4.98047 0 0 0 0
294.132 107.556 4.98047 0 0 0 0
294.132 109.333 4.98047 0 0 0 0
294.132 111.111 4.98047 0 0 0 0
294.132 112.889 4.98047 0 0 0 0
294.132 114.667 4.98047 0 0 0 0
294.132 116.444 4.98047 0 0 0 0
294.132 118.222 4.98047 0 0 0 0
294.132 120 4.98047 0 0 0 0
294.132 121.778 4.98047 0 0 0 0
294.132 123.556 4.98047 0 0 0 0
294.132 125.333 4.98047 0 0 0 0
294.132 127.111 4.98047 0 0 0 0
294.132 128.889 4.98047 0 0 0 0
294.132 130.667 4.98047 0 0 0 0
294.132 132.444 4.98047 0 0 0 0
294.132 134.222 4.98047 0 0 0 0
294.132 136 4.98047 0 0 0 0
294.132 137.778 4.98047 0 0 0 0
294.132 139.556 4.98047 0 0 0 0
294.132 141.333 4.98047 0 0 0 0
294.132 143.111 4.98047 142.826 11.0548 119.752 11879.4
294.132 144.889 4.98047 145.741 9.41771 115.924 6564.62
294.132 146.667 4.98047 146.622 9.17853 109.126 4982.23
294.132 148.444 4.98047 147.538 8.41136 102.491 6056.5
294.132 150.222 4.98047 148.034 8.2379 95.7899 4665.59
294.132 152 4.98047 148.381 7.75524 90.2319 761.452
294.132 153.778 4.98047 148.466 7.95063 85.0515 314.878
294.132 155.556 4.98047 149.029 7.42092 81.2975 276.65
294.132 157.333 4.98047 149.052 6.82578 78.1395 259.345
294.132 159.111 4.98047 149.333 6.29766 75.2866 285.464
294.132 160.889 4.98047 149.663 5.88623 72.4225 212.672
294.132 162.667 4.98047 150.346 5.23305 69.7389 176.861
294.132 164.444 4.98047 150.833 4.69914 67.4609 296.415
294.132 166.222 4.98047 151.021 4.24143 65.596 337.866
294.132 168 4.98047 151.125 3.78434 64.0361 363.18
294.132 169.778 4.98047 151.306 3.36404 62.5414 277.388
294.132 171.556 4.98047 151.597 2.9039 61.1638 226.915
294.132 173.333 4.98047 151.645 2.69037 59.8154 76.5941
294.132 175.111 4.98047 151.735 2.35167 58.4671 -35.8284
294.132 176.889 4.98047 151.897 2.18818 57.2719 -14.4197
294.132 178.667 4.98047 152.213 1.90651 56.0532 -89.9333
294.132 180.444 4.98047 152.3 1.73913 54.9163 -148.237
294.132 34.6666 5.95608 0 0 0 0
294.132 36.4444 5.95608 0 0 0 0
294.132 38.2222 5.95608 0 0 0 0
294.132 40 5.95608 0 0 0 0
294.132 41.7777 5.95608 0 0 0 0
294.132 43.5555 5.95608 0 0 0 0
294.132 45.3333 5.95608 0 0 0 0
294.132 47.1111 5.95608 0 0 0 0
294.132 48.8889 5.95608 0 0 0 0
294.132 50.6666 5.95608 0 0 0 0
294.132 52.4444 5.95608 0 0 0 0
294.132 54.2222 5.95608 0 0 0 0
294.132 56 5.95608 0 0 0 0
294.132 57.7777 5.95608 0 0 0 0
294.132 59.5555 5.95608 0 0 0 0
294.132 61.3333 5.95608 0 0 0 0
294.132 63.1111 5.95608 0 0 0 0
294.132 64.8889 5.95608 0 0 0 0
294.132 66.6666 5.95608 0 0 0 0
294.132 68.4444 5.95608 0 0 0 0
294.132 70.2222 5.95608 0 0 0 0
294.132 72 5.95608 0 0 0 0
294.132 73.7777 5.95608 0 0 0 0
294.132 75.5555 5.95608 0 0 0 0
294.132 77.3333 5.95608 0 0 0 0
294.132 79.1111 5.95608 0 0 0 0
294.132 80.8889 5.95608 0 0 0 0
294.132 82.6666 5.95608 0 0 0 0
294.132 84.4444 5.95608 0 0 0 0
294.132 86.2222 5.95608 0 0 0 0
294.132 88 5.95608 0 0 0 0
294.132 89.7778 5.95608 0 0 0 0
294.132 91.5556 5.95608 0 0 0 0
294.132 93.3333 5.95608 0 0 0 0
294.132 95.1111 5.95608 0 0 0 0
294.132 96.8889 5.95608 0 0 0 0
294.132 98.6667 5.95608 0 0 0 0
294.132 100.444 5.95608 0 0 0 0
294.132 102.222 5.95608 0 0 0 0
294.132 104 5.95608 0 0 0 0
294.132 105.778 5.95608 0 0 0 0
294.132 107.556 5.95608 0 0 0 0
294.132 109.333 5.95608 0 0 0 0
294.132 111.111 5.95608 0 0 0 0
294.132 112.889 5.95608 0 0 0 0
294.132 114.667 5.95608 0 0 0 0
294.132 116.444 5.95608 0 0 0 0
294.132 118.222 5.95608 0 0 0 0
294.132 120 5.95608 0 0 0 0
294.132 121.778 5.95608 0 0 0 0
294.132 123.556 5.95608 0 0 0 0
294.132 125.333 5.95608 0 0 0 0
294.132 127.111 5.95608 0 0 0 0
294.132 128.889 5.95608 0 0 0 0
294.132 130.667 5.95608 0 0 0 0
294.132 132.444 5.95608 0 0 0 0
294.132 134.222 5.95608 0 0 0 0
294.132 136 5.95608 0 0 0 0
294.132 137.778 5.95608 0 0 0 0
294.132 139.556 5.95608 145.582 0.0632223 126.774 19375.4
294.132 141.333 5.95608 150.693 -4.22924 130.319 11195.6
294.132 143.111 5.95608 152.133 -2.6353 126.562 7675.58
294.132 144.889 5.95608 151.45 0.0978924 118.955 3312.31
294.132 146.667 5.95608 151.009 1.97796 110.411 1674.15
294.132 148.444 5.95608 150.62 3.0796 102.881 837.892
294.132 150.222 5.95608 150.191 4.20959 96.3232 486.605
294.132 152 5.95608 150.151 4.43285 90.8117 244.436
294.132 153.778 5.95608 149.958 5.09109 85.5983 311.547
294.132 155.556 5.95608 150.248 5.14918 81.5324 546.999
294.132 157.333 5.95608 150.293 4.6905 78.4788 618.008
294.132 159.111 5.95608 150.497 4.24423 75.6128 525.717
294.132 160.889 5.95608 150.895 3.96742 72.7993 428.975
294.132 162.667 5.95608 151.264 3.6597 70.1356 262.565
294.132 164.444 5.95608 151.63 3.33088 67.801 184.923
294.132 166.222 5.95608 151.695 3.03307 65.8704 230.902
294.132 168 5.95608 151.944 2.61693 64.2943 243.253
294.132 169.778 5.95608 151.962 2.36989 62.7841 121.247
294.132 171.556 5.95608 152.106 1.99807 61.309 75.3419
294.132 173.333 5.95608 152.057 1.83927 59.9625 76.8539
294.132 175.111 5.95608 152.154 1.73845 58.6769 -7.65571
294.132 176.889 5.95608 152.346 1.53424 57.4958 -36.1229
294.132 178.667 5.95608 152.577 1.37735 56.3932 -152.249
294.132 180.444 5.95608 152.604 1.24574 55.1045 -255.599
294.132 34.6666 6.93169 0 0 0 0
294.132 36.4444 6.93169 0 0 0 0
294.132 38.2222 6.93169 0 0 0 0
294.132 40 6.93169 0 0 0 0
294.132 41.7777 6.93169 0 0 0 0
294.132 43.5555 6.93169 0 0 0 0
294.132 45.3333 6.93169 0 0 0 0
294.132 47.1111 6.93169 0 0 0 0
294.132 48.8889 6.93169 0 0 0 0
294.132 50.6666 6.93169 0 0 0 0
294.132 52.4444 6.93169 0 0 0 0
294.132 54.2222 6.93169 0 0 0 0
294.132 56 6.93169 0 0 0 0
294.132 57.7777 6.93169 0 0 0 0
294.132 59.5555 6.93169 0 0 0 0
294.132 61.3333 6.93169 0 0 0 0
294.132 63.1111 6.93169 0 0 0 0
294.132 64.8889 6.93169 0 0 0 0
294.132 66.6666 6.93169 0 0 0 0
294.132 68.4444 6.93169 0 0 0 0
294.132 70.2222 6.93169 0 0 0 0
294.132 72 6.93169 0 0 0 0
294.132 73.7777 6.93169 0 0 0 0
294.132 75.5555 6.93169 0 0 0 0
294.132 77.3333 6.93169 0 0 0 0
294.132 79.1111 6.93169 0 0 0 0
294.132 80.8889 6.93169 0 0 0 0
294.132 82.6666 6.93169 0 0 0 0
294.132 84.4444 6.93169 0 0 0 0
294.132 86.2222 6.93169 0 0 0 0
294.132 88 6.93169 0 0 0 0
294.132 89.7778 6.93169 0 0 0 0
294.132 91.5556 6.93169 0 0 0 0
294.132 93.3333 6.93169 0 0 0 0
294.132 95.1111 6.93169 0 0 0 0
294.132 96.8889 6.93169 0 0 0 0
294.132 98.6667 6.93169 0 0 0 0
294.132 100.444 6.93169 0 0 0 0
294.132 102.222 6.93169 0 0 0 0
294.132 104 6.93169 0 0 0 0
294.132 105.778 6.93169 0 0 0 0
294.132 107.556 6.93169 0 0 0 0
294.132 109.333 6.93169 0 0 0 0
294.132 111.111 6.93169 0 0 0 0
294.132 112.889 6.93169 0 0 0 0
294.132 114.667 6.93169 0 0 0 0
294.132 116.444 6.93169 0 0 0 0
294.132 118.222 6.93169 0 0 0 0
294.132 120 6.93169 0 0 0 0
294.132 121.778 6.93169 0 0 0 0
294.132 123.556 6.93169 0 0 0 0
294.132 125.333 6.93169 0 0 0 0
294.132 127.111 6.93169 0 0 0 0
294.132 128.889 6.93169 0 0 0 0
294.132 130.667 6.93169 0 0 0 0
294.132 132.444 6.93169 0 0 0 0
294.132 134.222 6.93169 0 0 0 0
294.132 136 6.93169 0 0 0 0
294.132 137.778 6.93169 153.923 -12.2088 124.082 19277.1
294.132 139.556 6.93169 157.36 -16.8939 133.226 16058.4
294.132 141.333 6.93169 157.888 -15.21 133.028 6865.63
294.132 143.111 6.93169 156.163 -10.1575 126.258 2103.3
294.132 144.889 6.93169 154.459 -5.90758 117.738 391.754
294.132 146.667 6.93169 153.415 -2.91059 109.429 -12.0182
294.132 148.444 6.93169 152.617 -0.955871 102.239 63.9525
294.132 150.222 6.93169 151.907 0.665857 96.0731 268.092
294.132 152 6.93169 151.821 1.39341 90.5677 220.385
294.132 153.778 6.93169 151.678 2.25107 85.4673 386.811
294.132 155.556 6.93169 151.856 2.44595 81.6073 774.013
294.132 157.333 6.93169 151.658 2.37084 78.6106 748.665
294.132 159.111 6.93169 151.738 2.15546 75.8458 506.458
294.132 160.889 6.93169 152.046 2.0438 73.0475 316.131
294.132 162.667 6.93169 152.202 1.97733 70.3884 252.4
294.132 164.444 6.93169 152.392 1.99729 68.0438 215.641
294.132 166.222 6.93169 152.405 1.86672 66.0682 234.942
294.132 168 6.93169 152.675 1.61621 64.4416 178.183
294.132 169.778 6.93169 152.627 1.48939 62.919 34.0907
294.132 171.556 6.93169 152.665 1.20821 61.4521 -60.279
294.132 173.333 6.93169 152.583 1.09574 60.0773 -42.3934
294.132 175.111 6.93169 152.662 1.0131 58.7694 -2.97032
294.132 176.889 6.93169 152.746 1.00557 57.6803 -94.3782
294.132 178.667 6.93169 152.851 0.891077 56.5237 -219.197
294.132 180.444 6.93169 152.878 0.822813 55.2989 -269.24
294.132 34.6666 7.9073 0 0 0 0
294.132 36.4444 7.9073 0 0 0 0
294.132 38.2222 7.9073 0 0 0 0
294.132 40 7.9073 0 0 0 0
294.132 41.7777 7.9073 0 0 0 0
294.132 43.5555 7.9073 0 0 0 0
294.132 45.3333 7.9073 0 0 0 0
294.132 47.1111 7.9073 0 0 0 0
294.132 48.8889 7.9073 0 0 0 0
294.132 50.6666 7.9073 0 0 0 0
294.132 52.4444 7.9073 0 0 0 0
294.132 54.2222 7.9073 0 0 0 0
294.132 56 7.9073 0 0 0 0
294.132 57.7777 7.9073 0 0 0 0
294.132 59.5555 7.9073 0 0 0 0
294.132 61.3333 7.9073 0 0 0 0
294.132 63.1111 7.9073 0 0 0 0
294.132 64.8889 7.9073 0 0 0 0
294.132 66.6666 7.9073 0 0 0 0
294.132 68.4444 7.9073 0 0 0 0
294.132 70.2222 7.9073 0 0 0 0
294.132 72 7.9073 0 0 0 0
294.132 73.7777 7.9073 0 0 0 0
294.132 75.5555 7.9073 0 0 0 0
294.132 77.3333 7.9073 0 0 0 0
294.132 79.1111 7.9073 0 0 0 0
294.132 80.8889 7.9073 0 0 0 0
294.132 82.6666 7.9073 0 0 0 0
294.132 84.4444 7.9073 0 0 0 0
294.132 86.2222 7.9073 0 0 0 0
294.132 88 7.9073 0 0 0 0
294.132 89.7778 7.9073 0 0 0 0
294.132 91.5556 7.9073 0 0 0 0
294.132 93.3333 7.9073 0 0 0 0
294.132 95.1111 7.9073 0 0 0 0
294.132 96.8889 7.9073 0 0 0 0
294.132 98.6667 7.9073 0 0 0 0
294.132 100.444 7.9073 0 0 0 0
294.132 102.222 7.9073 0 0 0 0
294.132 104 7.9073 0 0 0 0
294.132 105.778 7.9073 0 0 0 0
294.132 107.556 7.9073 0 0 0 0
294.132 109.333 7.9073 0 0 0 0
294.132 111.111 7.9073 0 0 0 0
294.132 112.889 7.9073 0 0 0 0
294.132 114.667 7.9073 0 0 0 0
294.132 116.444 7.9073 0 0 0 0
294.132 118.222 7.9073 0 0 0 0
294.132 120 7.9073 0 0 0 0
294.132 121.778 7.9073 0 0 0 0
294.132 123.556 7.9073 0 0 0 0
294.132 125.333 7.9073 0 0 0 0
294.132 127.111 7.9073 68.8266 58.7995 0.431879 2302.48
294.132 128.889 7.9073 84.0762 53.0245 10.7007 9674.99
294.132 130.667 7.9073 100.799 44.0098 29.8747 21029.9
294.132 132.444 7.9073 123.017 25.472 55.9064 34981.5
294.132 134.222 7.9073 145.684 1.10758 85.7547 33576.5
294.132 136 7.9073 157.589 -16.0389 111.25 27268
294.132 137.778 7.9073 162.605 -25.9983 128.458 18174
294.132 139.556 7.9073 163.182 -26.3601 133.415 8550.77
294.132 141.333 7.9073 161.204 -21.4501 130.597 2726.73
294.132 143.111 7.9073 158.263 -15.1291 123.272 447.393
294.132 144.889 7.9073 155.992 -9.90078 115.175 -280.351
294.132 146.667 7.9073 154.692 -6.50547 107.663 -317.756
294.132 148.444 7.9073 154.075 -4.37579 101.142 -185.92
294.132 150.222 7.9073 153.56 -2.7177 95.4806 102.871
294.132 152 7.9073 153.685 -1.8167 90.2202 89.4094
294.132 153.778 7.9073 153.404 -0.580342 85.2921 199.541
294.132 155.556 7.9073 153.345 -0.124502 81.5026 593.8
294.132 157.333 7.9073 153.123 0.0673967 78.6586 628.036