TITLE = "PIV data, model ID: 1, wind tunnel: TWG"
VARIABLES = "x", "y", "z", "u", "v", "w", "vorticity"
ZONE I=83, J=62, F=Point, T="xi = 0.7"
343.154 35.2222 -0.385385 0 0 0 0
343.154 37 -0.385385 0 0 0 0
343.154 38.7778 -0.385385 0 0 0 0
343.154 40.5556 -0.385385 0 0 0 0
343.154 42.3333 -0.385385 0 0 0 0
343.154 44.1111 -0.385385 0 0 0 0
343.154 45.8889 -0.385385 0 0 0 0
343.154 47.6667 -0.385385 0 0 0 0
343.154 49.4445 -0.385385 0 0 0 0
343.154 51.2222 -0.385385 0 0 0 0
343.154 53 -0.385385 0 0 0 0
343.154 54.7778 -0.385385 0 0 0 0
343.154 56.5556 -0.385385 0 0 0 0
343.154 58.3333 -0.385385 0 0 0 0
343.154 60.1111 -0.385385 0 0 0 0
343.154 61.8889 -0.385385 0 0 0 0
343.154 63.6667 -0.385385 0 0 0 0
343.154 65.4445 -0.385385 0 0 0 0
343.154 67.2222 -0.385385 0 0 0 0
343.154 69 -0.385385 0 0 0 0
343.154 70.7778 -0.385385 0 0 0 0
343.154 72.5556 -0.385385 0 0 0 0
343.154 74.3333 -0.385385 0 0 0 0
343.154 76.1111 -0.385385 0 0 0 0
343.154 77.8889 -0.385385 0 0 0 0
343.154 79.6667 -0.385385 0 0 0 0
343.154 81.4445 -0.385385 0 0 0 0
343.154 83.2222 -0.385385 0 0 0 0
343.154 85 -0.385385 0 0 0 0
343.154 86.7778 -0.385385 0 0 0 0
343.154 88.5556 -0.385385 0 0 0 0
343.154 90.3333 -0.385385 0 0 0 0
343.154 92.1111 -0.385385 0 0 0 0
343.154 93.8889 -0.385385 0 0 0 0
343.154 95.6667 -0.385385 0 0 0 0
343.154 97.4444 -0.385385 0 0 0 0
343.154 99.2222 -0.385385 0 0 0 0
343.154 101 -0.385385 0 0 0 0
343.154 102.778 -0.385385 0 0 0 0
343.154 104.556 -0.385385 0 0 0 0
343.154 106.333 -0.385385 0 0 0 0
343.154 108.111 -0.385385 0 0 0 0
343.154 109.889 -0.385385 0 0 0 0
343.154 111.667 -0.385385 0 0 0 0
343.154 113.444 -0.385385 0 0 0 0
343.154 115.222 -0.385385 0 0 0 0
343.154 117 -0.385385 0 0 0 0
343.154 118.778 -0.385385 0 0 0 0
343.154 120.556 -0.385385 0 0 0 0
343.154 122.333 -0.385385 0 0 0 0
343.154 124.111 -0.385385 0 0 0 0
343.154 125.889 -0.385385 0 0 0 0
343.154 127.667 -0.385385 0 0 0 0
343.154 129.444 -0.385385 0 0 0 0
343.154 131.222 -0.385385 0 0 0 0
343.154 133 -0.385385 0 0 0 0
343.154 134.778 -0.385385 0 0 0 0
343.154 136.556 -0.385385 0 0 0 0
343.154 138.333 -0.385385 0 0 0 0
343.154 140.111 -0.385385 0 0 0 0
343.154 141.889 -0.385385 0 0 0 0
343.154 143.667 -0.385385 0 0 0 0
343.154 145.444 -0.385385 0 0 0 0
343.154 147.222 -0.385385 0 0 0 0
343.154 149 -0.385385 0 0 0 0
343.154 150.778 -0.385385 0 0 0 0
343.154 152.556 -0.385385 0 0 0 0
343.154 154.333 -0.385385 0 0 0 0
343.154 156.111 -0.385385 0 0 0 0
343.154 157.889 -0.385385 0 0 0 0
343.154 159.667 -0.385385 0 0 0 0
343.154 161.444 -0.385385 0 0 0 0
343.154 163.222 -0.385385 0 0 0 0
343.154 165 -0.385385 0 0 0 0
343.154 166.778 -0.385385 0 0 0 0
343.154 168.556 -0.385385 0 0 0 0
343.154 170.333 -0.385385 0 0 0 0
343.154 172.111 -0.385385 0 0 0 0
343.154 173.889 -0.385385 0 0 0 0
343.154 175.667 -0.385385 0 0 0 0
343.154 177.444 -0.385385 0 0 0 0
343.154 179.222 -0.385385 0 0 0 0
343.154 181 -0.385385 0 0 0 0
343.154 35.2222 0.590215 0 0 0 0
343.154 37 0.590215 0 0 0 0
343.154 38.7778 0.590215 0 0 0 0
343.154 40.5556 0.590215 0 0 0 0
343.154 42.3333 0.590215 0 0 0 0
343.154 44.1111 0.590215 0 0 0 0
343.154 45.8889 0.590215 0 0 0 0
343.154 47.6667 0.590215 0 0 0 0
343.154 49.4445 0.590215 0 0 0 0
343.154 51.2222 0.590215 0 0 0 0
343.154 53 0.590215 0 0 0 0
343.154 54.7778 0.590215 0 0 0 0
343.154 56.5556 0.590215 0 0 0 0
343.154 58.3333 0.590215 0 0 0 0
343.154 60.1111 0.590215 0 0 0 0
343.154 61.8889 0.590215 0 0 0 0
343.154 63.6667 0.590215 0 0 0 0
343.154 65.4445 0.590215 0 0 0 0
343.154 67.2222 0.590215 0 0 0 0
343.154 69 0.590215 0 0 0 0
343.154 70.7778 0.590215 0 0 0 0
343.154 72.5556 0.590215 0 0 0 0
343.154 74.3333 0.590215 0 0 0 0
343.154 76.1111 0.590215 0 0 0 0
343.154 77.8889 0.590215 0 0 0 0
343.154 79.6667 0.590215 0 0 0 0
343.154 81.4445 0.590215 0 0 0 0
343.154 83.2222 0.590215 0 0 0 0
343.154 85 0.590215 0 0 0 0
343.154 86.7778 0.590215 0 0 0 0
343.154 88.5556 0.590215 0 0 0 0
343.154 90.3333 0.590215 0 0 0 0
343.154 92.1111 0.590215 0 0 0 0
343.154 93.8889 0.590215 0 0 0 0
343.154 95.6667 0.590215 0 0 0 0
343.154 97.4444 0.590215 0 0 0 0
343.154 99.2222 0.590215 0 0 0 0
343.154 101 0.590215 0 0 0 0
343.154 102.778 0.590215 0 0 0 0
343.154 104.556 0.590215 0 0 0 0
343.154 106.333 0.590215 0 0 0 0
343.154 108.111 0.590215 0 0 0 0
343.154 109.889 0.590215 0 0 0 0
343.154 111.667 0.590215 0 0 0 0
343.154 113.444 0.590215 0 0 0 0
343.154 115.222 0.590215 0 0 0 0
343.154 117 0.590215 0 0 0 0
343.154 118.778 0.590215 0 0 0 0
343.154 120.556 0.590215 0 0 0 0
343.154 122.333 0.590215 0 0 0 0
343.154 124.111 0.590215 0 0 0 0
343.154 125.889 0.590215 0 0 0 0
343.154 127.667 0.590215 0 0 0 0
343.154 129.444 0.590215 0 0 0 0
343.154 131.222 0.590215 0 0 0 0
343.154 133 0.590215 0 0 0 0
343.154 134.778 0.590215 0 0 0 0
343.154 136.556 0.590215 0 0 0 0
343.154 138.333 0.590215 0 0 0 0
343.154 140.111 0.590215 0 0 0 0
343.154 141.889 0.590215 0 0 0 0
343.154 143.667 0.590215 0 0 0 0
343.154 145.444 0.590215 0 0 0 0
343.154 147.222 0.590215 0 0 0 0
343.154 149 0.590215 0 0 0 0
343.154 150.778 0.590215 0 0 0 0
343.154 152.556 0.590215 0 0 0 0
343.154 154.333 0.590215 0 0 0 0
343.154 156.111 0.590215 0 0 0 0
343.154 157.889 0.590215 0 0 0 0
343.154 159.667 0.590215 0 0 0 0
343.154 161.444 0.590215 0 0 0 0
343.154 163.222 0.590215 0 0 0 0
343.154 165 0.590215 0 0 0 0
343.154 166.778 0.590215 0 0 0 0
343.154 168.556 0.590215 0 0 0 0
343.154 170.333 0.590215 0 0 0 0
343.154 172.111 0.590215 0 0 0 0
343.154 173.889 0.590215 0 0 0 0
343.154 175.667 0.590215 0 0 0 0
343.154 177.444 0.590215 0 0 0 0
343.154 179.222 0.590215 0 0 0 0
343.154 181 0.590215 0 0 0 0
343.154 35.2222 1.56582 0 0 0 0
343.154 37 1.56582 0 0 0 0
343.154 38.7778 1.56582 0 0 0 0
343.154 40.5556 1.56582 0 0 0 0
343.154 42.3333 1.56582 0 0 0 0
343.154 44.1111 1.56582 0 0 0 0
343.154 45.8889 1.56582 0 0 0 0
343.154 47.6667 1.56582 0 0 0 0
343.154 49.4445 1.56582 0 0 0 0
343.154 51.2222 1.56582 0 0 0 0
343.154 53 1.56582 0 0 0 0
343.154 54.7778 1.56582 0 0 0 0
343.154 56.5556 1.56582 0 0 0 0
343.154 58.3333 1.56582 0 0 0 0
343.154 60.1111 1.56582 0 0 0 0
343.154 61.8889 1.56582 0 0 0 0
343.154 63.6667 1.56582 0 0 0 0
343.154 65.4445 1.56582 0 0 0 0
343.154 67.2222 1.56582 0 0 0 0
343.154 69 1.56582 0 0 0 0
343.154 70.7778 1.56582 0 0 0 0
343.154 72.5556 1.56582 0 0 0 0
343.154 74.3333 1.56582 0 0 0 0
343.154 76.1111 1.56582 0 0 0 0
343.154 77.8889 1.56582 0 0 0 0
343.154 79.6667 1.56582 0 0 0 0
343.154 81.4445 1.56582 0 0 0 0
343.154 83.2222 1.56582 0 0 0 0
343.154 85 1.56582 0 0 0 0
343.154 86.7778 1.56582 0 0 0 0
343.154 88.5556 1.56582 0 0 0 0
343.154 90.3333 1.56582 0 0 0 0
343.154 92.1111 1.56582 0 0 0 0
343.154 93.8889 1.56582 0 0 0 0
343.154 95.6667 1.56582 0 0 0 0
343.154 97.4444 1.56582 0 0 0 0
343.154 99.2222 1.56582 0 0 0 0
343.154 101 1.56582 0 0 0 0
343.154 102.778 1.56582 0 0 0 0
343.154 104.556 1.56582 0 0 0 0
343.154 106.333 1.56582 0 0 0 0
343.154 108.111 1.56582 0 0 0 0
343.154 109.889 1.56582 0 0 0 0
343.154 111.667 1.56582 0 0 0 0
343.154 113.444 1.56582 0 0 0 0
343.154 115.222 1.56582 0 0 0 0
343.154 117 1.56582 0 0 0 0
343.154 118.778 1.56582 0 0 0 0
343.154 120.556 1.56582 0 0 0 0
343.154 122.333 1.56582 0 0 0 0
343.154 124.111 1.56582 0 0 0 0
343.154 125.889 1.56582 0 0 0 0
343.154 127.667 1.56582 0 0 0 0
343.154 129.444 1.56582 0 0 0 0
343.154 131.222 1.56582 0 0 0 0
343.154 133 1.56582 0 0 0 0
343.154 134.778 1.56582 0 0 0 0
343.154 136.556 1.56582 0 0 0 0
343.154 138.333 1.56582 0 0 0 0
343.154 140.111 1.56582 0 0 0 0
343.154 141.889 1.56582 0 0 0 0
343.154 143.667 1.56582 0 0 0 0
343.154 145.444 1.56582 0 0 0 0
343.154 147.222 1.56582 0 0 0 0
343.154 149 1.56582 0 0 0 0
343.154 150.778 1.56582 0 0 0 0
343.154 152.556 1.56582 0 0 0 0
343.154 154.333 1.56582 0 0 0 0
343.154 156.111 1.56582 0 0 0 0
343.154 157.889 1.56582 0 0 0 0
343.154 159.667 1.56582 0 0 0 0
343.154 161.444 1.56582 0 0 0 0
343.154 163.222 1.56582 0 0 0 0
343.154 165 1.56582 0 0 0 0
343.154 166.778 1.56582 0 0 0 0
343.154 168.556 1.56582 0 0 0 0
343.154 170.333 1.56582 0 0 0 0
343.154 172.111 1.56582 0 0 0 0
343.154 173.889 1.56582 0 0 0 0
343.154 175.667 1.56582 0 0 0 0
343.154 177.444 1.56582 0 0 0 0
343.154 179.222 1.56582 0 0 0 0
343.154 181 1.56582 0 0 0 0
343.154 35.2222 2.54142 0 0 0 0
343.154 37 2.54142 0 0 0 0
343.154 38.7778 2.54142 0 0 0 0
343.154 40.5556 2.54142 0 0 0 0
343.154 42.3333 2.54142 0 0 0 0
343.154 44.1111 2.54142 0 0 0 0
343.154 45.8889 2.54142 0 0 0 0
343.154 47.6667 2.54142 0 0 0 0
343.154 49.4445 2.54142 0 0 0 0
343.154 51.2222 2.54142 0 0 0 0
343.154 53 2.54142 0 0 0 0
343.154 54.7778 2.54142 0 0 0 0
343.154 56.5556 2.54142 0 0 0 0
343.154 58.3333 2.54142 0 0 0 0
343.154 60.1111 2.54142 0 0 0 0
343.154 61.8889 2.54142 0 0 0 0
343.154 63.6667 2.54142 0 0 0 0
343.154 65.4445 2.54142 0 0 0 0
343.154 67.2222 2.54142 0 0 0 0
343.154 69 2.54142 0 0 0 0
343.154 70.7778 2.54142 0 0 0 0
343.154 72.5556 2.54142 0 0 0 0
343.154 74.3333 2.54142 0 0 0 0
343.154 76.1111 2.54142 0 0 0 0
343.154 77.8889 2.54142 0 0 0 0
343.154 79.6667 2.54142 0 0 0 0
343.154 81.4445 2.54142 0 0 0 0
343.154 83.2222 2.54142 0 0 0 0
343.154 85 2.54142 0 0 0 0
343.154 86.7778 2.54142 0 0 0 0
343.154 88.5556 2.54142 0 0 0 0
343.154 90.3333 2.54142 0 0 0 0
343.154 92.1111 2.54142 0 0 0 0
343.154 93.8889 2.54142 0 0 0 0
343.154 95.6667 2.54142 0 0 0 0
343.154 97.4444 2.54142 0 0 0 0
343.154 99.2222 2.54142 0 0 0 0
343.154 101 2.54142 0 0 0 0
343.154 102.778 2.54142 0 0 0 0
343.154 104.556 2.54142 0 0 0 0
343.154 106.333 2.54142 0 0 0 0
343.154 108.111 2.54142 0 0 0 0
343.154 109.889 2.54142 0 0 0 0
343.154 111.667 2.54142 0 0 0 0
343.154 113.444 2.54142 0 0 0 0
343.154 115.222 2.54142 0 0 0 0
343.154 117 2.54142 0 0 0 0
343.154 118.778 2.54142 0 0 0 0
343.154 120.556 2.54142 0 0 0 0
343.154 122.333 2.54142 0 0 0 0
343.154 124.111 2.54142 0 0 0 0
343.154 125.889 2.54142 0 0 0 0
343.154 127.667 2.54142 0 0 0 0
343.154 129.444 2.54142 0 0 0 0
343.154 131.222 2.54142 0 0 0 0
343.154 133 2.54142 0 0 0 0
343.154 134.778 2.54142 0 0 0 0
343.154 136.556 2.54142 0 0 0 0
343.154 138.333 2.54142 0 0 0 0
343.154 140.111 2.54142 0 0 0 0
343.154 141.889 2.54142 0 0 0 0
343.154 143.667 2.54142 0 0 0 0
343.154 145.444 2.54142 0 0 0 0
343.154 147.222 2.54142 0 0 0 0
343.154 149 2.54142 0 0 0 0
343.154 150.778 2.54142 0 0 0 0
343.154 152.556 2.54142 0 0 0 0
343.154 154.333 2.54142 0 0 0 0
343.154 156.111 2.54142 0 0 0 0
343.154 157.889 2.54142 0 0 0 0
343.154 159.667 2.54142 0 0 0 0
343.154 161.444 2.54142 0 0 0 0
343.154 163.222 2.54142 0 0 0 0
343.154 165 2.54142 0 0 0 0
343.154 166.778 2.54142 0 0 0 0
343.154 168.556 2.54142 0 0 0 0
343.154 170.333 2.54142 0 0 0 0
343.154 172.111 2.54142 0 0 0 0
343.154 173.889 2.54142 0 0 0 0
343.154 175.667 2.54142 0 0 0 0
343.154 177.444 2.54142 0 0 0 0
343.154 179.222 2.54142 0 0 0 0
343.154 181 2.54142 0 0 0 0
343.154 35.2222 3.51702 0 0 0 0
343.154 37 3.51702 0 0 0 0
343.154 38.7778 3.51702 0 0 0 0
343.154 40.5556 3.51702 0 0 0 0
343.154 42.3333 3.51702 0 0 0 0
343.154 44.1111 3.51702 0 0 0 0
343.154 45.8889 3.51702 0 0 0 0
343.154 47.6667 3.51702 0 0 0 0
343.154 49.4445 3.51702 0 0 0 0
343.154 51.2222 3.51702 0 0 0 0
343.154 53 3.51702 0 0 0 0
343.154 54.7778 3.51702 0 0 0 0
343.154 56.5556 3.51702 0 0 0 0
343.154 58.3333 3.51702 0 0 0 0
343.154 60.1111 3.51702 0 0 0 0
343.154 61.8889 3.51702 0 0 0 0
343.154 63.6667 3.51702 0 0 0 0
343.154 65.4445 3.51702 0 0 0 0
343.154 67.2222 3.51702 0 0 0 0
343.154 69 3.51702 0 0 0 0
343.154 70.7778 3.51702 0 0 0 0
343.154 72.5556 3.51702 0 0 0 0
343.154 74.3333 3.51702 0 0 0 0
343.154 76.1111 3.51702 0 0 0 0
343.154 77.8889 3.51702 0 0 0 0
343.154 79.6667 3.51702 0 0 0 0
343.154 81.4445 3.51702 0 0 0 0
343.154 83.2222 3.51702 0 0 0 0
343.154 85 3.51702 0 0 0 0
343.154 86.7778 3.51702 0 0 0 0
343.154 88.5556 3.51702 0 0 0 0
343.154 90.3333 3.51702 0 0 0 0
343.154 92.1111 3.51702 0 0 0 0
343.154 93.8889 3.51702 0 0 0 0
343.154 95.6667 3.51702 0 0 0 0
343.154 97.4444 3.51702 0 0 0 0
343.154 99.2222 3.51702 0 0 0 0
343.154 101 3.51702 0 0 0 0
343.154 102.778 3.51702 0 0 0 0
343.154 104.556 3.51702 0 0 0 0
343.154 106.333 3.51702 0 0 0 0
343.154 108.111 3.51702 0 0 0 0
343.154 109.889 3.51702 0 0 0 0
343.154 111.667 3.51702 0 0 0 0
343.154 113.444 3.51702 0 0 0 0
343.154 115.222 3.51702 0 0 0 0
343.154 117 3.51702 0 0 0 0
343.154 118.778 3.51702 0 0 0 0
343.154 120.556 3.51702 0 0 0 0
343.154 122.333 3.51702 0 0 0 0
343.154 124.111 3.51702 0 0 0 0
343.154 125.889 3.51702 0 0 0 0
343.154 127.667 3.51702 0 0 0 0
343.154 129.444 3.51702 0 0 0 0
343.154 131.222 3.51702 0 0 0 0
343.154 133 3.51702 0 0 0 0
343.154 134.778 3.51702 0 0 0 0
343.154 136.556 3.51702 0 0 0 0
343.154 138.333 3.51702 0 0 0 0
343.154 140.111 3.51702 0 0 0 0
343.154 141.889 3.51702 0 0 0 0
343.154 143.667 3.51702 0 0 0 0
343.154 145.444 3.51702 0 0 0 0
343.154 147.222 3.51702 0 0 0 0
343.154 149 3.51702 0 0 0 0
343.154 150.778 3.51702 0 0 0 0
343.154 152.556 3.51702 0 0 0 0
343.154 154.333 3.51702 0 0 0 0
343.154 156.111 3.51702 0 0 0 0
343.154 157.889 3.51702 0 0 0 0
343.154 159.667 3.51702 0 0 0 0
343.154 161.444 3.51702 0 0 0 0
343.154 163.222 3.51702 0 0 0 0
343.154 165 3.51702 0 0 0 0
343.154 166.778 3.51702 0 0 0 0
343.154 168.556 3.51702 0 0 0 0
343.154 170.333 3.51702 0 0 0 0
343.154 172.111 3.51702 0 0 0 0
343.154 173.889 3.51702 0 0 0 0
343.154 175.667 3.51702 0 0 0 0
343.154 177.444 3.51702 0 0 0 0
343.154 179.222 3.51702 0 0 0 0
343.154 181 3.51702 0 0 0 0
343.154 35.2222 4.49267 0 0 0 0
343.154 37 4.49267 0 0 0 0
343.154 38.7778 4.49267 0 0 0 0
343.154 40.5556 4.49267 0 0 0 0
343.154 42.3333 4.49267 0 0 0 0
343.154 44.1111 4.49267 0 0 0 0
343.154 45.8889 4.49267 0 0 0 0
343.154 47.6667 4.49267 0 0 0 0
343.154 49.4445 4.49267 0 0 0 0
343.154 51.2222 4.49267 0 0 0 0
343.154 53 4.49267 0 0 0 0
343.154 54.7778 4.49267 0 0 0 0
343.154 56.5556 4.49267 0 0 0 0
343.154 58.3333 4.49267 0 0 0 0
343.154 60.1111 4.49267 0 0 0 0
343.154 61.8889 4.49267 0 0 0 0
343.154 63.6667 4.49267 0 0 0 0
343.154 65.4445 4.49267 0 0 0 0
343.154 67.2222 4.49267 0 0 0 0
343.154 69 4.49267 0 0 0 0
343.154 70.7778 4.49267 0 0 0 0
343.154 72.5556 4.49267 0 0 0 0
343.154 74.3333 4.49267 0 0 0 0
343.154 76.1111 4.49267 0 0 0 0
343.154 77.8889 4.49267 0 0 0 0
343.154 79.6667 4.49267 0 0 0 0
343.154 81.4445 4.49267 0 0 0 0
343.154 83.2222 4.49267 0 0 0 0
343.154 85 4.49267 0 0 0 0
343.154 86.7778 4.49267 0 0 0 0
343.154 88.5556 4.49267 0 0 0 0
343.154 90.3333 4.49267 0 0 0 0
343.154 92.1111 4.49267 0 0 0 0
343.154 93.8889 4.49267 0 0 0 0
343.154 95.6667 4.49267 0 0 0 0
343.154 97.4444 4.49267 0 0 0 0
343.154 99.2222 4.49267 0 0 0 0
343.154 101 4.49267 0 0 0 0
343.154 102.778 4.49267 0 0 0 0
343.154 104.556 4.49267 0 0 0 0
343.154 106.333 4.49267 0 0 0 0
343.154 108.111 4.49267 0 0 0 0
343.154 109.889 4.49267 0 0 0 0
343.154 111.667 4.49267 0 0 0 0
343.154 113.444 4.49267 0 0 0 0
343.154 115.222 4.49267 0 0 0 0
343.154 117 4.49267 0 0 0 0
343.154 118.778 4.49267 0 0 0 0
343.154 120.556 4.49267 0 0 0 0
343.154 122.333 4.49267 0 0 0 0
343.154 124.111 4.49267 0 0 0 0
343.154 125.889 4.49267 0 0 0 0
343.154 127.667 4.49267 0 0 0 0
343.154 129.444 4.49267 0 0 0 0
343.154 131.222 4.49267 0 0 0 0
343.154 133 4.49267 0 0 0 0
343.154 134.778 4.49267 0 0 0 0
343.154 136.556 4.49267 0 0 0 0
343.154 138.333 4.49267 0 0 0 0
343.154 140.111 4.49267 0 0 0 0
343.154 141.889 4.49267 0 0 0 0
343.154 143.667 4.49267 0 0 0 0
343.154 145.444 4.49267 0 0 0 0
343.154 147.222 4.49267 0 0 0 0
343.154 149 4.49267 0 0 0 0
343.154 150.778 4.49267 0 0 0 0
343.154 152.556 4.49267 0 0 0 0
343.154 154.333 4.49267 0 0 0 0
343.154 156.111 4.49267 0 0 0 0
343.154 157.889 4.49267 0 0 0 0
343.154 159.667 4.49267 0 0 0 0
343.154 161.444 4.49267 0 0 0 0
343.154 163.222 4.49267 0 0 0 0
343.154 165 4.49267 130.16 27.7412 108.965 19136.9
343.154 166.778 4.49267 138.922 20.8625 111.372 9144.54
343.154 168.556 4.49267 141.201 18.6629 105.299 3824.97
343.154 170.333 4.49267 142.345 17.3087 99.0474 3005.94
343.154 172.111 4.49267 143.96 15.3066 93.8268 1703.85
343.154 173.889 4.49267 145.846 12.7635 89.5819 -22.2334
343.154 175.667 4.49267 146.439 11.9608 84.9823 -465.145
343.154 177.444 4.49267 146.7 11.3231 80.9825 -182.878
343.154 179.222 4.49267 147.245 10.5262 77.568 -150.488
343.154 181 4.49267 147.771 9.59856 74.4037 -551.751
343.154 35.2222 5.46828 0 0 0 0
343.154 37 5.46828 0 0 0 0
343.154 38.7778 5.46828 0 0 0 0
343.154 40.5556 5.46828 0 0 0 0
343.154 42.3333 5.46828 0 0 0 0
343.154 44.1111 5.46828 0 0 0 0
343.154 45.8889 5.46828 0 0 0 0
343.154 47.6667 5.46828 0 0 0 0
343.154 49.4445 5.46828 0 0 0 0
343.154 51.2222 5.46828 0 0 0 0
343.154 53 5.46828 0 0 0 0
343.154 54.7778 5.46828 0 0 0 0
343.154 56.5556 5.46828 0 0 0 0
343.154 58.3333 5.46828 0 0 0 0
343.154 60.1111 5.46828 0 0 0 0
343.154 61.8889 5.46828 0 0 0 0
343.154 63.6667 5.46828 0 0 0 0
343.154 65.4445 5.46828 0 0 0 0
343.154 67.2222 5.46828 0 0 0 0
343.154 69 5.46828 0 0 0 0
343.154 70.7778 5.46828 0 0 0 0
343.154 72.5556 5.46828 0 0 0 0
343.154 74.3333 5.46828 0 0 0 0
343.154 76.1111 5.46828 0 0 0 0
343.154 77.8889 5.46828 0 0 0 0
343.154 79.6667 5.46828 0 0 0 0
343.154 81.4445 5.46828 0 0 0 0
343.154 83.2222 5.46828 0 0 0 0
343.154 85 5.46828 0 0 0 0
343.154 86.7778 5.46828 0 0 0 0
343.154 88.5556 5.46828 0 0 0 0
343.154 90.3333 5.46828 0 0 0 0
343.154 92.1111 5.46828 0 0 0 0
343.154 93.8889 5.46828 0 0 0 0
343.154 95.6667 5.46828 0 0 0 0
343.154 97.4444 5.46828 0 0 0 0
343.154 99.2222 5.46828 0 0 0 0
343.154 101 5.46828 0 0 0 0
343.154 102.778 5.46828 0 0 0 0
343.154 104.556 5.46828 0 0 0 0
343.154 106.333 5.46828 0 0 0 0
343.154 108.111 5.46828 0 0 0 0
343.154 109.889 5.46828 0 0 0 0
343.154 111.667 5.46828 0 0 0 0
343.154 113.444 5.46828 0 0 0 0
343.154 115.222 5.46828 0 0 0 0
343.154 117 5.46828 0 0 0 0
343.154 118.778 5.46828 0 0 0 0
343.154 120.556 5.46828 0 0 0 0
343.154 122.333 5.46828 0 0 0 0
343.154 124.111 5.46828 0 0 0 0
343.154 125.889 5.46828 0 0 0 0
343.154 127.667 5.46828 0 0 0 0
343.154 129.444 5.46828 0 0 0 0
343.154 131.222 5.46828 0 0 0 0
343.154 133 5.46828 0 0 0 0
343.154 134.778 5.46828 0 0 0 0
343.154 136.556 5.46828 0 0 0 0
343.154 138.333 5.46828 0 0 0 0
343.154 140.111 5.46828 0 0 0 0
343.154 141.889 5.46828 0 0 0 0
343.154 143.667 5.46828 0 0 0 0
343.154 145.444 5.46828 0 0 0 0
343.154 147.222 5.46828 0 0 0 0
343.154 149 5.46828 0 0 0 0
343.154 150.778 5.46828 0 0 0 0
343.154 152.556 5.46828 0 0 0 0
343.154 154.333 5.46828 0 0 0 0
343.154 156.111 5.46828 0 0 0 0
343.154 157.889 5.46828 0 0 0 0
343.154 159.667 5.46828 0 0 0 0
343.154 161.444 5.46828 0 0 0 0
343.154 163.222 5.46828 0 0 0 0
343.154 165 5.46828 145.694 10.3914 123.823 10343.6
343.154 166.778 5.46828 146.266 10.935 117.896 4867.14
343.154 168.556 5.46828 146.494 11.5488 109.565 1961.34
343.154 170.333 5.46828 146.7 11.2276 101.679 1239.1
343.154 172.111 5.46828 146.67 11.0473 95.305 598.66
343.154 173.889 5.46828 146.911 10.3586 89.9925 -246.894
343.154 175.667 5.46828 147.097 10.0546 85.4174 -468.066
343.154 177.444 5.46828 147.573 9.46675 81.2319 -323.248
343.154 179.222 5.46828 147.972 8.86805 77.8196 -187.614
343.154 181 5.46828 148.132 8.40054 74.4544 -411.441
343.154 35.2222 6.44389 0 0 0 0
343.154 37 6.44389 0 0 0 0
343.154 38.7778 6.44389 0 0 0 0
343.154 40.5556 6.44389 0 0 0 0
343.154 42.3333 6.44389 0 0 0 0
343.154 44.1111 6.44389 0 0 0 0
343.154 45.8889 6.44389 0 0 0 0
343.154 47.6667 6.44389 0 0 0 0
343.154 49.4445 6.44389 0 0 0 0
343.154 51.2222 6.44389 0 0 0 0
343.154 53 6.44389 0 0 0 0
343.154 54.7778 6.44389 0 0 0 0
343.154 56.5556 6.44389 0 0 0 0
343.154 58.3333 6.44389 0 0 0 0
343.154 60.1111 6.44389 0 0 0 0
343.154 61.8889 6.44389 0 0 0 0
343.154 63.6667 6.44389 0 0 0 0
343.154 65.4445 6.44389 0 0 0 0
343.154 67.2222 6.44389 0 0 0 0
343.154 69 6.44389 0 0 0 0
343.154 70.7778 6.44389 0 0 0 0
343.154 72.5556 6.44389 0 0 0 0
343.154 74.3333 6.44389 0 0 0 0
343.154 76.1111 6.44389 0 0 0 0
343.154 77.8889 6.44389 0 0 0 0
343.154 79.6667 6.44389 0 0 0 0
343.154 81.4445 6.44389 0 0 0 0
343.154 83.2222 6.44389 0 0 0 0
343.154 85 6.44389 0 0 0 0
343.154 86.7778 6.44389 0 0 0 0
343.154 88.5556 6.44389 0 0 0 0
343.154 90.3333 6.44389 0 0 0 0
343.154 92.1111 6.44389 0 0 0 0
343.154 93.8889 6.44389 0 0 0 0
343.154 95.6667 6.44389 0 0 0 0
343.154 97.4444 6.44389 0 0 0 0
343.154 99.2222 6.44389 0 0 0 0
343.154 101 6.44389 0 0 0 0
343.154 102.778 6.44389 0 0 0 0
343.154 104.556 6.44389 0 0 0 0
343.154 106.333 6.44389 0 0 0 0
343.154 108.111 6.44389 0 0 0 0
343.154 109.889 6.44389 0 0 0 0
343.154 111.667 6.44389 0 0 0 0
343.154 113.444 6.44389 0 0 0 0
343.154 115.222 6.44389 0 0 0 0
343.154 117 6.44389 0 0 0 0
343.154 118.778 6.44389 0 0 0 0
343.154 120.556 6.44389 0 0 0 0
343.154 122.333 6.44389 0 0 0 0
343.154 124.111 6.44389 0 0 0 0
343.154 125.889 6.44389 0 0 0 0
343.154 127.667 6.44389 0 0 0 0
343.154 129.444 6.44389 0 0 0 0
343.154 131.222 6.44389 0 0 0 0
343.154 133 6.44389 0 0 0 0
343.154 134.778 6.44389 0 0 0 0
343.154 136.556 6.44389 0 0 0 0
343.154 138.333 6.44389 0 0 0 0
343.154 140.111 6.44389 0 0 0 0
343.154 141.889 6.44389 0 0 0 0
343.154 143.667 6.44389 0 0 0 0
343.154 145.444 6.44389 0 0 0 0
343.154 147.222 6.44389 0 0 0 0
343.154 149 6.44389 0 0 0 0
343.154 150.778 6.44389 0 0 0 0
343.154 152.556 6.44389 0 0 0 0
343.154 154.333 6.44389 0 0 0 0
343.154 156.111 6.44389 0 0 0 0
343.154 157.889 6.44389 0 0 0 0
343.154 159.667 6.44389 0 0 0 0
343.154 161.444 6.44389 146.467 6.1528 117.502 17535.8
343.154 163.222 6.44389 150.592 1.20924 127.701 12578
343.154 165 6.44389 151.915 1.05409 127.722 5943.78
343.154 166.778 6.44389 151.103 3.54211 119.294 1384.13
343.154 168.556 6.44389 149.773 5.93493 109.722 202.333
343.154 170.333 6.44389 148.767 7.0641 101.954 99.358
343.154 172.111 6.44389 148.283 7.72596 95.776 57.7975
343.154 173.889 6.44389 148.179 7.8198 90.381 -188.286
343.154 175.667 6.44389 148.166 8.0657 85.5328 -215.618
343.154 177.444 6.44389 148.477 7.78365 81.2052 -37.9831
343.154 179.222 6.44389 149.016 7.17338 77.9803 55.5712
343.154 181 6.44389 149.108 6.70832 74.581 -114.146
343.154 35.2222 7.4195 0 0 0 0
343.154 37 7.4195 0 0 0 0
343.154 38.7778 7.4195 0 0 0 0
343.154 40.5556 7.4195 0 0 0 0
343.154 42.3333 7.4195 0 0 0 0
343.154 44.1111 7.4195 0 0 0 0
343.154 45.8889 7.4195 0 0 0 0
343.154 47.6667 7.4195 0 0 0 0
343.154 49.4445 7.4195 0 0 0 0
343.154 51.2222 7.4195 0 0 0 0
343.154 53 7.4195 0 0 0 0
343.154 54.7778 7.4195 0 0 0 0
343.154 56.5556 7.4195 0 0 0 0
343.154 58.3333 7.4195 0 0 0 0
343.154 60.1111 7.4195 0 0 0 0
343.154 61.8889 7.4195 0 0 0 0
343.154 63.6667 7.4195 0 0 0 0
343.154 65.4445 7.4195 0 0 0 0
343.154 67.2222 7.4195 0 0 0 0
343.154 69 7.4195 0 0 0 0
343.154 70.7778 7.4195 0 0 0 0
343.154 72.5556 7.4195 0 0 0 0
343.154 74.3333 7.4195 0 0 0 0
343.154 76.1111 7.4195 0 0 0 0
343.154 77.8889 7.4195 0 0 0 0
343.154 79.6667 7.4195 0 0 0 0
343.154 81.4445 7.4195 0 0 0 0
343.154 83.2222 7.4195 0 0 0 0
343.154 85 7.4195 0 0 0 0
343.154 86.7778 7.4195 0 0 0 0
343.154 88.5556 7.4195 0 0 0 0
343.154 90.3333 7.4195 0 0 0 0
343.154 92.1111 7.4195 0 0 0 0
343.154 93.8889 7.4195 0 0 0 0
343.154 95.6667 7.4195 0 0 0 0
343.154 97.4444 7.4195 0 0 0 0
343.154 99.2222 7.4195 0 0 0 0
343.154 101 7.4195 0 0 0 0
343.154 102.778 7.4195 0 0 0 0
343.154 104.556 7.4195 0 0 0 0
343.154 106.333 7.4195 0 0 0 0
343.154 108.111 7.4195 0 0 0 0
343.154 109.889 7.4195 0 0 0 0
343.154 111.667 7.4195 0 0 0 0
343.154 113.444 7.4195 0 0 0 0
343.154 115.222 7.4195 0 0 0 0
343.154 117 7.4195 0 0 0 0
343.154 118.778 7.4195 0 0 0 0
343.154 120.556 7.4195 0 0 0 0
343.154 122.333 7.4195 0 0 0 0
343.154 124.111 7.4195 0 0 0 0
343.154 125.889 7.4195 0 0 0 0
343.154 127.667 7.4195 0 0 0 0
343.154 129.444 7.4195 0 0 0 0
343.154 131.222 7.4195 0 0 0 0
343.154 133 7.4195 0 0 0 0
343.154 134.778 7.4195 0 0 0 0
343.154 136.556 7.4195 0 0 0 0
343.154 138.333 7.4195 0 0 0 0
343.154 140.111 7.4195 0 0 0 0
343.154 141.889 7.4195 0 0 0 0
343.154 143.667 7.4195 0 0 0 0
343.154 145.444 7.4195 0 0 0 0
343.154 147.222 7.4195 0 0 0 0
343.154 149 7.4195 0 0 0 0
343.154 150.778 7.4195 0 0 0 0
343.154 152.556 7.4195 0 0 0 0
343.154 154.333 7.4195 0 0 0 0
343.154 156.111 7.4195 0 0 0 0
343.154 157.889 7.4195 0 0 0 0
343.154 159.667 7.4195 0 0 0 0
343.154 161.444 7.4195 154.174 -5.35744 121.954 14408.5
343.154 163.222 7.4195 156.229 -8.25811 129.401 9355.4
343.154 165 7.4195 155.816 -5.81924 126.807 2581.72
343.154 166.778 7.4195 153.727 -1.64256 117.55 -483.965
343.154 168.556 7.4195 151.947 1.63666 108.671 -353.37
343.154 170.333 7.4195 150.763 3.37924 101.55 -11.3634
343.154 172.111 7.4195 150.093 4.58428 95.601 149.255
343.154 173.889 7.4195 149.733 5.10542 90.4474 133.711
343.154 175.667 7.4195 149.686 5.43903 85.6244 268.223
343.154 177.444 7.4195 150.004 5.39555 81.5266 358.31
343.154 179.222 7.4195 150.25 5.12484 78.1205 267.409
343.154 181 7.4195 150.179 4.89279 74.9041 122.987
343.154 35.2222 8.39511 0 0 0 0
343.154 37 8.39511 0 0 0 0
343.154 38.7778 8.39511 0 0 0 0
343.154 40.5556 8.39511 0 0 0 0
343.154 42.3333 8.39511 0 0 0 0
343.154 44.1111 8.39511 0 0 0 0
343.154 45.8889 8.39511 0 0 0 0
343.154 47.6667 8.39511 0 0 0 0
343.154 49.4445 8.39511 0 0 0 0
343.154 51.2222 8.39511 0 0 0 0
343.154 53 8.39511 0 0 0 0
343.154 54.7778 8.39511 0 0 0 0
343.154 56.5556 8.39511 0 0 0 0
343.154 58.3333 8.39511 0 0 0 0
343.154 60.1111 8.39511 0 0 0 0
343.154 61.8889 8.39511 0 0 0 0
343.154 63.6667 8.39511 0 0 0 0
343.154 65.4445 8.39511 0 0 0 0
343.154 67.2222 8.39511 0 0 0 0
343.154 69 8.39511 0 0 0 0
343.154 70.7778 8.39511 0 0 0 0
343.154 72.5556 8.39511 0 0 0 0
343.154 74.3333 8.39511 0 0 0 0
343.154 76.1111 8.39511 0 0 0 0
343.154 77.8889 8.39511 0 0 0 0
343.154 79.6667 8.39511 0 0 0 0
343.154 81.4445 8.39511 0 0 0 0
343.154 83.2222 8.39511 0 0 0 0
343.154 85 8.39511 0 0 0 0
343.154 86.7778 8.39511 0 0 0 0
343.154 88.5556 8.39511 0 0 0 0
343.154 90.3333 8.39511 0 0 0 0
343.154 92.1111 8.39511 0 0 0 0
343.154 93.8889 8.39511 0 0 0 0
343.154 95.6667 8.39511 0 0 0 0
343.154 97.4444 8.39511 0 0 0 0
343.154 99.2222 8.39511 0 0 0 0
343.154 101 8.39511 0 0 0 0
343.154 102.778 8.39511 0 0 0 0
343.154 104.556 8.39511 0 0 0 0
343.154 106.333 8.39511 0 0 0 0
343.154 108.111 8.39511 0 0 0 0
343.154 109.889 8.39511 0 0 0 0
343.154 111.667 8.39511 0 0 0 0
343.154 113.444 8.39511 0 0 0 0
343.154 115.222 8.39511 0 0 0 0
343.154 117 8.39511 0 0 0 0
343.154 118.778 8.39511 0 0 0 0
343.154 120.556 8.39511 0 0 0 0
343.154 122.333 8.39511 0 0 0 0
343.154 124.111 8.39511 0 0 0 0
343.154 125.889 8.39511 0 0 0 0
343.154 127.667 8.39511 0 0 0 0
343.154 129.444 8.39511 0 0 0 0
343.154 131.222 8.39511 0 0 0 0
343.154 133 8.39511 0 0 0 0
343.154 134.778 8.39511 0 0 0 0
343.154 136.556 8.39511 0 0 0 0
343.154 138.333 8.39511 0 0 0 0
343.154 140.111 8.39511 0 0 0 0
343.154 141.889 8.39511 0 0 0 0
343.154 143.667 8.39511 0 0 0 0
343.154 145.444 8.39511 0 0 0 0
343.154 147.222 8.39511 58.2851 80.1859 7.74909 -19066.7
343.154 149 8.39511 63.1743 69.542 13.5981 -20813.9
343.154 150.778 8.39511 0 0 0 0
343.154 152.556 8.39511 0 0 0 0
343.154 154.333 8.39511 0 0 0 0
343.154 156.111 8.39511 0 0 0 0
343.154 157.889 8.39511 145.07 15.4433 80.1145 27713.9
343.154 159.667 8.39511 154.459 -4.79642 107.631 21186.3
343.154 161.444 8.39511 158.738 -13.7865 123.53 12650.7
343.154 163.222 8.39511 159.324 -14.3823 127.802 5082.64
343.154 165 8.39511 157.727 -10.4862 123.449 353.501
343.154 166.778 8.39511 155.32 -5.46501 114.76 -936.02
343.154 168.556 8.39511 153.792 -2.15743 107.09 -288.219
343.154 170.333 8.39511 152.619 -0.0874111 100.697 27.3502
343.154 172.111 8.39511 151.975 1.3426 95.2419 183.05
343.154 173.889 8.39511 151.498 2.08462 90.2967 147.313
343.154 175.667 8.39511 151.291 2.64601 85.7159 231.872
343.154 177.444 8.39511 151.372 2.96587 81.6248 271.6
343.154 179.222 8.39511 151.485 3.01776 78.2935 187.507
343.154 181 8.39511 151.3 2.93859 74.9804 -9.01779
343.154 35.2222 9.37072 0 0 0 0
343.154 37 9.37072 0 0 0 0
343.154 38.7778 9.37072 0 0 0 0
343.154 40.5556 9.37072 0 0 0 0
343.154 42.3333 9.37072 0 0 0 0
343.154 44.1111 9.37072 0 0 0 0
343.154 45.8889 9.37072 0 0 0 0
343.154 47.6667 9.37072 0 0 0 0
343.154 49.4445 9.37072 0 0 0 0
343.154 51.2222 9.37072 0 0 0 0
343.154 53 9.37072 0 0 0 0
343.154 54.7778 9.37072 0 0 0 0
343.154 56.5556 9.37072 0 0 0 0
343.154 58.3333 9.37072 136.793 15.0758 0.206921 1944.42
343.154 60.1111 9.37072 132.059 15.5195 0.629247 2624.07
343.154 61.8889 9.37072 129.672 16.1058 0.550696 3555.37
343.154 63.6667 9.37072 127.844 12.7365 0.407308 -46.8042
343.154 65.4445 9.37072 129.302 10.3937 0.0825105 -1665.43
343.154 67.2222 9.37072 131.337 12.5924 0.0812015 1323.46
343.154 69 9.37072 133.961 12.5252 -0.0765352 1557.04
343.154 70.7778 9.37072 139.344 13.9684 -0.116177 2712.6
343.154 72.5556 9.37072 141.669 16.4615 -0.17349 4598.15
343.154 74.3333 9.37072 144.707 16.0136 -0.368968 3010.29
343.154 76.1111 9.37072 148.204 16.4881 -0.818847 2070.19
343.154 77.8889 9.37072 150.13 17.1414 -1.26563 87.5057
343.154 79.6667 9.37072 150.219 17.2805 -1.76836 -2667.99
343.154 81.4445 9.37072 152.713 20.1058 -2.34541 -2030.1
343.154 83.2222 9.37072 155.421 24.8594 -2.95082 -2628.28
343.154 85 9.37072 157.66 31.4443 -3.61527 -2570.13
343.154 86.7778 9.37072 159.047 39.1608 -4.41048 -1856.57
343.154 88.5556 9.37072 159.146 48.372 -4.76244 -1164.5
343.154 90.3333 9.37072 157.002 54.4627 -4.1644 -2242.48
343.154 92.1111 9.37072 153.03 60.2063 -2.62008 -2237.31
343.154 93.8889 9.37072 148.206 63.4014 -0.50641 -2365.37
343.154 95.6667 9.37072 142.348 61.4096 2.43549 -3588.9
343.154 97.4444 9.37072 135.964 55.684 4.86472 -6178.57
343.154 99.2222 9.37072 129.795 47.4364 7.29908 -7213.01
343.154 101 9.37072 124.661 38.7855 7.61536 -5855.88
343.154 102.778 9.37072 120.975 30.7578 6.69345 -3100.61
343.154 104.556 9.37072 120.043 20.0986 4.84396 -5145.2
343.154 106.333 9.37072 125.192 15.1089 2.57097 -4005.28
343.154 108.111 9.37072 133.084 12.0511 0.601964 -2098.24
343.154 109.889 9.37072 142.719 11.5644 -0.151578 -20.0364