TITLE = "PIV data, model ID: 1, wind tunnel: TWG"
VARIABLES = "x", "y", "z", "u", "v", "w", "vorticity"
ZONE I=83, J=62, F=Point, T="xi = 0.8"
392.176 38.1666 -0.324409 0 0 0 0
392.176 39.9444 -0.324409 0 0 0 0
392.176 41.7222 -0.324409 0 0 0 0
392.176 43.5 -0.324409 0 0 0 0
392.176 45.2777 -0.324409 0 0 0 0
392.176 47.0555 -0.324409 0 0 0 0
392.176 48.8333 -0.324409 0 0 0 0
392.176 50.6111 -0.324409 0 0 0 0
392.176 52.3889 -0.324409 0 0 0 0
392.176 54.1666 -0.324409 0 0 0 0
392.176 55.9444 -0.324409 0 0 0 0
392.176 57.7222 -0.324409 0 0 0 0
392.176 59.5 -0.324409 0 0 0 0
392.176 61.2777 -0.324409 0 0 0 0
392.176 63.0555 -0.324409 0 0 0 0
392.176 64.8333 -0.324409 0 0 0 0
392.176 66.6111 -0.324409 0 0 0 0
392.176 68.3889 -0.324409 0 0 0 0
392.176 70.1666 -0.324409 0 0 0 0
392.176 71.9444 -0.324409 0 0 0 0
392.176 73.7222 -0.324409 0 0 0 0
392.176 75.5 -0.324409 0 0 0 0
392.176 77.2777 -0.324409 0 0 0 0
392.176 79.0555 -0.324409 0 0 0 0
392.176 80.8333 -0.324409 0 0 0 0
392.176 82.6111 -0.324409 0 0 0 0
392.176 84.3889 -0.324409 0 0 0 0
392.176 86.1666 -0.324409 0 0 0 0
392.176 87.9444 -0.324409 0 0 0 0
392.176 89.7222 -0.324409 0 0 0 0
392.176 91.5 -0.324409 0 0 0 0
392.176 93.2778 -0.324409 0 0 0 0
392.176 95.0556 -0.324409 0 0 0 0
392.176 96.8333 -0.324409 0 0 0 0
392.176 98.6111 -0.324409 0 0 0 0
392.176 100.389 -0.324409 0 0 0 0
392.176 102.167 -0.324409 0 0 0 0
392.176 103.944 -0.324409 0 0 0 0
392.176 105.722 -0.324409 0 0 0 0
392.176 107.5 -0.324409 0 0 0 0
392.176 109.278 -0.324409 0 0 0 0
392.176 111.056 -0.324409 0 0 0 0
392.176 112.833 -0.324409 0 0 0 0
392.176 114.611 -0.324409 0 0 0 0
392.176 116.389 -0.324409 0 0 0 0
392.176 118.167 -0.324409 0 0 0 0
392.176 119.944 -0.324409 0 0 0 0
392.176 121.722 -0.324409 0 0 0 0
392.176 123.5 -0.324409 0 0 0 0
392.176 125.278 -0.324409 0 0 0 0
392.176 127.056 -0.324409 0 0 0 0
392.176 128.833 -0.324409 0 0 0 0
392.176 130.611 -0.324409 0 0 0 0
392.176 132.389 -0.324409 0 0 0 0
392.176 134.167 -0.324409 0 0 0 0
392.176 135.944 -0.324409 0 0 0 0
392.176 137.722 -0.324409 0 0 0 0
392.176 139.5 -0.324409 0 0 0 0
392.176 141.278 -0.324409 0 0 0 0
392.176 143.056 -0.324409 0 0 0 0
392.176 144.833 -0.324409 0 0 0 0
392.176 146.611 -0.324409 0 0 0 0
392.176 148.389 -0.324409 0 0 0 0
392.176 150.167 -0.324409 0 0 0 0
392.176 151.944 -0.324409 0 0 0 0
392.176 153.722 -0.324409 0 0 0 0
392.176 155.5 -0.324409 0 0 0 0
392.176 157.278 -0.324409 0 0 0 0
392.176 159.056 -0.324409 0 0 0 0
392.176 160.833 -0.324409 0 0 0 0
392.176 162.611 -0.324409 0 0 0 0
392.176 164.389 -0.324409 0 0 0 0
392.176 166.167 -0.324409 0 0 0 0
392.176 167.944 -0.324409 0 0 0 0
392.176 169.722 -0.324409 0 0 0 0
392.176 171.5 -0.324409 0 0 0 0
392.176 173.278 -0.324409 0 0 0 0
392.176 175.056 -0.324409 0 0 0 0
392.176 176.833 -0.324409 0 0 0 0
392.176 178.611 -0.324409 0 0 0 0
392.176 180.389 -0.324409 0 0 0 0
392.176 182.167 -0.324409 0 0 0 0
392.176 183.944 -0.324409 0 0 0 0
392.176 38.1666 0.651191 0 0 0 0
392.176 39.9444 0.651191 0 0 0 0
392.176 41.7222 0.651191 0 0 0 0
392.176 43.5 0.651191 0 0 0 0
392.176 45.2777 0.651191 0 0 0 0
392.176 47.0555 0.651191 0 0 0 0
392.176 48.8333 0.651191 0 0 0 0
392.176 50.6111 0.651191 0 0 0 0
392.176 52.3889 0.651191 0 0 0 0
392.176 54.1666 0.651191 0 0 0 0
392.176 55.9444 0.651191 0 0 0 0
392.176 57.7222 0.651191 0 0 0 0
392.176 59.5 0.651191 0 0 0 0
392.176 61.2777 0.651191 0 0 0 0
392.176 63.0555 0.651191 0 0 0 0
392.176 64.8333 0.651191 0 0 0 0
392.176 66.6111 0.651191 0 0 0 0
392.176 68.3889 0.651191 0 0 0 0
392.176 70.1666 0.651191 0 0 0 0
392.176 71.9444 0.651191 0 0 0 0
392.176 73.7222 0.651191 0 0 0 0
392.176 75.5 0.651191 0 0 0 0
392.176 77.2777 0.651191 0 0 0 0
392.176 79.0555 0.651191 0 0 0 0
392.176 80.8333 0.651191 0 0 0 0
392.176 82.6111 0.651191 0 0 0 0
392.176 84.3889 0.651191 0 0 0 0
392.176 86.1666 0.651191 0 0 0 0
392.176 87.9444 0.651191 0 0 0 0
392.176 89.7222 0.651191 0 0 0 0
392.176 91.5 0.651191 0 0 0 0
392.176 93.2778 0.651191 0 0 0 0
392.176 95.0556 0.651191 0 0 0 0
392.176 96.8333 0.651191 0 0 0 0
392.176 98.6111 0.651191 0 0 0 0
392.176 100.389 0.651191 0 0 0 0
392.176 102.167 0.651191 0 0 0 0
392.176 103.944 0.651191 0 0 0 0
392.176 105.722 0.651191 0 0 0 0
392.176 107.5 0.651191 0 0 0 0
392.176 109.278 0.651191 0 0 0 0
392.176 111.056 0.651191 0 0 0 0
392.176 112.833 0.651191 0 0 0 0
392.176 114.611 0.651191 0 0 0 0
392.176 116.389 0.651191 0 0 0 0
392.176 118.167 0.651191 0 0 0 0
392.176 119.944 0.651191 0 0 0 0
392.176 121.722 0.651191 0 0 0 0
392.176 123.5 0.651191 0 0 0 0
392.176 125.278 0.651191 0 0 0 0
392.176 127.056 0.651191 0 0 0 0
392.176 128.833 0.651191 0 0 0 0
392.176 130.611 0.651191 0 0 0 0
392.176 132.389 0.651191 0 0 0 0
392.176 134.167 0.651191 0 0 0 0
392.176 135.944 0.651191 0 0 0 0
392.176 137.722 0.651191 0 0 0 0
392.176 139.5 0.651191 0 0 0 0
392.176 141.278 0.651191 0 0 0 0
392.176 143.056 0.651191 0 0 0 0
392.176 144.833 0.651191 0 0 0 0
392.176 146.611 0.651191 0 0 0 0
392.176 148.389 0.651191 0 0 0 0
392.176 150.167 0.651191 0 0 0 0
392.176 151.944 0.651191 0 0 0 0
392.176 153.722 0.651191 0 0 0 0
392.176 155.5 0.651191 0 0 0 0
392.176 157.278 0.651191 0 0 0 0
392.176 159.056 0.651191 0 0 0 0
392.176 160.833 0.651191 0 0 0 0
392.176 162.611 0.651191 0 0 0 0
392.176 164.389 0.651191 0 0 0 0
392.176 166.167 0.651191 0 0 0 0
392.176 167.944 0.651191 0 0 0 0
392.176 169.722 0.651191 0 0 0 0
392.176 171.5 0.651191 0 0 0 0
392.176 173.278 0.651191 0 0 0 0
392.176 175.056 0.651191 0 0 0 0
392.176 176.833 0.651191 0 0 0 0
392.176 178.611 0.651191 0 0 0 0
392.176 180.389 0.651191 0 0 0 0
392.176 182.167 0.651191 0 0 0 0
392.176 183.944 0.651191 0 0 0 0
392.176 38.1666 1.62679 0 0 0 0
392.176 39.9444 1.62679 0 0 0 0
392.176 41.7222 1.62679 0 0 0 0
392.176 43.5 1.62679 0 0 0 0
392.176 45.2777 1.62679 0 0 0 0
392.176 47.0555 1.62679 0 0 0 0
392.176 48.8333 1.62679 0 0 0 0
392.176 50.6111 1.62679 0 0 0 0
392.176 52.3889 1.62679 0 0 0 0
392.176 54.1666 1.62679 0 0 0 0
392.176 55.9444 1.62679 0 0 0 0
392.176 57.7222 1.62679 0 0 0 0
392.176 59.5 1.62679 0 0 0 0
392.176 61.2777 1.62679 0 0 0 0
392.176 63.0555 1.62679 0 0 0 0
392.176 64.8333 1.62679 0 0 0 0
392.176 66.6111 1.62679 0 0 0 0
392.176 68.3889 1.62679 0 0 0 0
392.176 70.1666 1.62679 0 0 0 0
392.176 71.9444 1.62679 0 0 0 0
392.176 73.7222 1.62679 0 0 0 0
392.176 75.5 1.62679 0 0 0 0
392.176 77.2777 1.62679 0 0 0 0
392.176 79.0555 1.62679 0 0 0 0
392.176 80.8333 1.62679 0 0 0 0
392.176 82.6111 1.62679 0 0 0 0
392.176 84.3889 1.62679 0 0 0 0
392.176 86.1666 1.62679 0 0 0 0
392.176 87.9444 1.62679 0 0 0 0
392.176 89.7222 1.62679 0 0 0 0
392.176 91.5 1.62679 0 0 0 0
392.176 93.2778 1.62679 0 0 0 0
392.176 95.0556 1.62679 0 0 0 0
392.176 96.8333 1.62679 0 0 0 0
392.176 98.6111 1.62679 0 0 0 0
392.176 100.389 1.62679 0 0 0 0
392.176 102.167 1.62679 0 0 0 0
392.176 103.944 1.62679 0 0 0 0
392.176 105.722 1.62679 0 0 0 0
392.176 107.5 1.62679 0 0 0 0
392.176 109.278 1.62679 0 0 0 0
392.176 111.056 1.62679 0 0 0 0
392.176 112.833 1.62679 0 0 0 0
392.176 114.611 1.62679 0 0 0 0
392.176 116.389 1.62679 0 0 0 0
392.176 118.167 1.62679 0 0 0 0
392.176 119.944 1.62679 0 0 0 0
392.176 121.722 1.62679 0 0 0 0
392.176 123.5 1.62679 0 0 0 0
392.176 125.278 1.62679 0 0 0 0
392.176 127.056 1.62679 0 0 0 0
392.176 128.833 1.62679 0 0 0 0
392.176 130.611 1.62679 0 0 0 0
392.176 132.389 1.62679 0 0 0 0
392.176 134.167 1.62679 0 0 0 0
392.176 135.944 1.62679 0 0 0 0
392.176 137.722 1.62679 0 0 0 0
392.176 139.5 1.62679 0 0 0 0
392.176 141.278 1.62679 0 0 0 0
392.176 143.056 1.62679 0 0 0 0
392.176 144.833 1.62679 0 0 0 0
392.176 146.611 1.62679 0 0 0 0
392.176 148.389 1.62679 0 0 0 0
392.176 150.167 1.62679 0 0 0 0
392.176 151.944 1.62679 0 0 0 0
392.176 153.722 1.62679 0 0 0 0
392.176 155.5 1.62679 0 0 0 0
392.176 157.278 1.62679 0 0 0 0
392.176 159.056 1.62679 0 0 0 0
392.176 160.833 1.62679 0 0 0 0
392.176 162.611 1.62679 0 0 0 0
392.176 164.389 1.62679 0 0 0 0
392.176 166.167 1.62679 0 0 0 0
392.176 167.944 1.62679 0 0 0 0
392.176 169.722 1.62679 0 0 0 0
392.176 171.5 1.62679 0 0 0 0
392.176 173.278 1.62679 0 0 0 0
392.176 175.056 1.62679 0 0 0 0
392.176 176.833 1.62679 0 0 0 0
392.176 178.611 1.62679 0 0 0 0
392.176 180.389 1.62679 0 0 0 0
392.176 182.167 1.62679 0 0 0 0
392.176 183.944 1.62679 0 0 0 0
392.176 38.1666 2.60239 0 0 0 0
392.176 39.9444 2.60239 0 0 0 0
392.176 41.7222 2.60239 0 0 0 0
392.176 43.5 2.60239 0 0 0 0
392.176 45.2777 2.60239 0 0 0 0
392.176 47.0555 2.60239 0 0 0 0
392.176 48.8333 2.60239 0 0 0 0
392.176 50.6111 2.60239 0 0 0 0
392.176 52.3889 2.60239 0 0 0 0
392.176 54.1666 2.60239 0 0 0 0
392.176 55.9444 2.60239 0 0 0 0
392.176 57.7222 2.60239 0 0 0 0
392.176 59.5 2.60239 0 0 0 0
392.176 61.2777 2.60239 0 0 0 0
392.176 63.0555 2.60239 0 0 0 0
392.176 64.8333 2.60239 0 0 0 0
392.176 66.6111 2.60239 0 0 0 0
392.176 68.3889 2.60239 0 0 0 0
392.176 70.1666 2.60239 0 0 0 0
392.176 71.9444 2.60239 0 0 0 0
392.176 73.7222 2.60239 0 0 0 0
392.176 75.5 2.60239 0 0 0 0
392.176 77.2777 2.60239 0 0 0 0
392.176 79.0555 2.60239 0 0 0 0
392.176 80.8333 2.60239 0 0 0 0
392.176 82.6111 2.60239 0 0 0 0
392.176 84.3889 2.60239 0 0 0 0
392.176 86.1666 2.60239 0 0 0 0
392.176 87.9444 2.60239 0 0 0 0
392.176 89.7222 2.60239 0 0 0 0
392.176 91.5 2.60239 0 0 0 0
392.176 93.2778 2.60239 0 0 0 0
392.176 95.0556 2.60239 0 0 0 0
392.176 96.8333 2.60239 0 0 0 0
392.176 98.6111 2.60239 0 0 0 0
392.176 100.389 2.60239 0 0 0 0
392.176 102.167 2.60239 0 0 0 0
392.176 103.944 2.60239 0 0 0 0
392.176 105.722 2.60239 0 0 0 0
392.176 107.5 2.60239 0 0 0 0
392.176 109.278 2.60239 0 0 0 0
392.176 111.056 2.60239 0 0 0 0
392.176 112.833 2.60239 0 0 0 0
392.176 114.611 2.60239 0 0 0 0
392.176 116.389 2.60239 0 0 0 0
392.176 118.167 2.60239 0 0 0 0
392.176 119.944 2.60239 0 0 0 0
392.176 121.722 2.60239 0 0 0 0
392.176 123.5 2.60239 0 0 0 0
392.176 125.278 2.60239 0 0 0 0
392.176 127.056 2.60239 0 0 0 0
392.176 128.833 2.60239 0 0 0 0
392.176 130.611 2.60239 0 0 0 0
392.176 132.389 2.60239 0 0 0 0
392.176 134.167 2.60239 0 0 0 0
392.176 135.944 2.60239 0 0 0 0
392.176 137.722 2.60239 0 0 0 0
392.176 139.5 2.60239 0 0 0 0
392.176 141.278 2.60239 0 0 0 0
392.176 143.056 2.60239 0 0 0 0
392.176 144.833 2.60239 0 0 0 0
392.176 146.611 2.60239 0 0 0 0
392.176 148.389 2.60239 0 0 0 0
392.176 150.167 2.60239 0 0 0 0
392.176 151.944 2.60239 0 0 0 0
392.176 153.722 2.60239 0 0 0 0
392.176 155.5 2.60239 0 0 0 0
392.176 157.278 2.60239 0 0 0 0
392.176 159.056 2.60239 0 0 0 0
392.176 160.833 2.60239 0 0 0 0
392.176 162.611 2.60239 0 0 0 0
392.176 164.389 2.60239 0 0 0 0
392.176 166.167 2.60239 0 0 0 0
392.176 167.944 2.60239 0 0 0 0
392.176 169.722 2.60239 0 0 0 0
392.176 171.5 2.60239 0 0 0 0
392.176 173.278 2.60239 0 0 0 0
392.176 175.056 2.60239 0 0 0 0
392.176 176.833 2.60239 0 0 0 0
392.176 178.611 2.60239 0 0 0 0
392.176 180.389 2.60239 0 0 0 0
392.176 182.167 2.60239 0 0 0 0
392.176 183.944 2.60239 0 0 0 0
392.176 38.1666 3.57799 0 0 0 0
392.176 39.9444 3.57799 0 0 0 0
392.176 41.7222 3.57799 0 0 0 0
392.176 43.5 3.57799 0 0 0 0
392.176 45.2777 3.57799 0 0 0 0
392.176 47.0555 3.57799 0 0 0 0
392.176 48.8333 3.57799 0 0 0 0
392.176 50.6111 3.57799 0 0 0 0
392.176 52.3889 3.57799 0 0 0 0
392.176 54.1666 3.57799 0 0 0 0
392.176 55.9444 3.57799 0 0 0 0
392.176 57.7222 3.57799 0 0 0 0
392.176 59.5 3.57799 0 0 0 0
392.176 61.2777 3.57799 0 0 0 0
392.176 63.0555 3.57799 0 0 0 0
392.176 64.8333 3.57799 0 0 0 0
392.176 66.6111 3.57799 0 0 0 0
392.176 68.3889 3.57799 0 0 0 0
392.176 70.1666 3.57799 0 0 0 0
392.176 71.9444 3.57799 0 0 0 0
392.176 73.7222 3.57799 0 0 0 0
392.176 75.5 3.57799 0 0 0 0
392.176 77.2777 3.57799 0 0 0 0
392.176 79.0555 3.57799 0 0 0 0
392.176 80.8333 3.57799 0 0 0 0
392.176 82.6111 3.57799 0 0 0 0
392.176 84.3889 3.57799 0 0 0 0
392.176 86.1666 3.57799 0 0 0 0
392.176 87.9444 3.57799 0 0 0 0
392.176 89.7222 3.57799 0 0 0 0
392.176 91.5 3.57799 0 0 0 0
392.176 93.2778 3.57799 0 0 0 0
392.176 95.0556 3.57799 0 0 0 0
392.176 96.8333 3.57799 0 0 0 0
392.176 98.6111 3.57799 0 0 0 0
392.176 100.389 3.57799 0 0 0 0
392.176 102.167 3.57799 0 0 0 0
392.176 103.944 3.57799 0 0 0 0
392.176 105.722 3.57799 0 0 0 0
392.176 107.5 3.57799 0 0 0 0
392.176 109.278 3.57799 0 0 0 0
392.176 111.056 3.57799 0 0 0 0
392.176 112.833 3.57799 0 0 0 0
392.176 114.611 3.57799 0 0 0 0
392.176 116.389 3.57799 0 0 0 0
392.176 118.167 3.57799 0 0 0 0
392.176 119.944 3.57799 0 0 0 0
392.176 121.722 3.57799 0 0 0 0
392.176 123.5 3.57799 0 0 0 0
392.176 125.278 3.57799 0 0 0 0
392.176 127.056 3.57799 0 0 0 0
392.176 128.833 3.57799 0 0 0 0
392.176 130.611 3.57799 0 0 0 0
392.176 132.389 3.57799 0 0 0 0
392.176 134.167 3.57799 0 0 0 0
392.176 135.944 3.57799 0 0 0 0
392.176 137.722 3.57799 0 0 0 0
392.176 139.5 3.57799 0 0 0 0
392.176 141.278 3.57799 0 0 0 0
392.176 143.056 3.57799 0 0 0 0
392.176 144.833 3.57799 0 0 0 0
392.176 146.611 3.57799 0 0 0 0
392.176 148.389 3.57799 0 0 0 0
392.176 150.167 3.57799 0 0 0 0
392.176 151.944 3.57799 0 0 0 0
392.176 153.722 3.57799 0 0 0 0
392.176 155.5 3.57799 0 0 0 0
392.176 157.278 3.57799 0 0 0 0
392.176 159.056 3.57799 0 0 0 0
392.176 160.833 3.57799 0 0 0 0
392.176 162.611 3.57799 0 0 0 0
392.176 164.389 3.57799 0 0 0 0
392.176 166.167 3.57799 0 0 0 0
392.176 167.944 3.57799 0 0 0 0
392.176 169.722 3.57799 0 0 0 0
392.176 171.5 3.57799 0 0 0 0
392.176 173.278 3.57799 0 0 0 0
392.176 175.056 3.57799 0 0 0 0
392.176 176.833 3.57799 0 0 0 0
392.176 178.611 3.57799 0 0 0 0
392.176 180.389 3.57799 0 0 0 0
392.176 182.167 3.57799 0 0 0 0
392.176 183.944 3.57799 0 0 0 0
392.176 38.1666 4.55364 0 0 0 0
392.176 39.9444 4.55364 0 0 0 0
392.176 41.7222 4.55364 0 0 0 0
392.176 43.5 4.55364 0 0 0 0
392.176 45.2777 4.55364 0 0 0 0
392.176 47.0555 4.55364 0 0 0 0
392.176 48.8333 4.55364 0 0 0 0
392.176 50.6111 4.55364 0 0 0 0
392.176 52.3889 4.55364 0 0 0 0
392.176 54.1666 4.55364 0 0 0 0
392.176 55.9444 4.55364 0 0 0 0
392.176 57.7222 4.55364 0 0 0 0
392.176 59.5 4.55364 0 0 0 0
392.176 61.2777 4.55364 0 0 0 0
392.176 63.0555 4.55364 0 0 0 0
392.176 64.8333 4.55364 0 0 0 0
392.176 66.6111 4.55364 0 0 0 0
392.176 68.3889 4.55364 0 0 0 0
392.176 70.1666 4.55364 0 0 0 0
392.176 71.9444 4.55364 0 0 0 0
392.176 73.7222 4.55364 0 0 0 0
392.176 75.5 4.55364 0 0 0 0
392.176 77.2777 4.55364 0 0 0 0
392.176 79.0555 4.55364 0 0 0 0
392.176 80.8333 4.55364 0 0 0 0
392.176 82.6111 4.55364 0 0 0 0
392.176 84.3889 4.55364 0 0 0 0
392.176 86.1666 4.55364 0 0 0 0
392.176 87.9444 4.55364 0 0 0 0
392.176 89.7222 4.55364 0 0 0 0
392.176 91.5 4.55364 0 0 0 0
392.176 93.2778 4.55364 0 0 0 0
392.176 95.0556 4.55364 0 0 0 0
392.176 96.8333 4.55364 0 0 0 0
392.176 98.6111 4.55364 0 0 0 0
392.176 100.389 4.55364 0 0 0 0
392.176 102.167 4.55364 0 0 0 0
392.176 103.944 4.55364 0 0 0 0
392.176 105.722 4.55364 0 0 0 0
392.176 107.5 4.55364 0 0 0 0
392.176 109.278 4.55364 0 0 0 0
392.176 111.056 4.55364 0 0 0 0
392.176 112.833 4.55364 0 0 0 0
392.176 114.611 4.55364 0 0 0 0
392.176 116.389 4.55364 0 0 0 0
392.176 118.167 4.55364 0 0 0 0
392.176 119.944 4.55364 0 0 0 0
392.176 121.722 4.55364 0 0 0 0
392.176 123.5 4.55364 0 0 0 0
392.176 125.278 4.55364 0 0 0 0
392.176 127.056 4.55364 0 0 0 0
392.176 128.833 4.55364 0 0 0 0
392.176 130.611 4.55364 0 0 0 0
392.176 132.389 4.55364 0 0 0 0
392.176 134.167 4.55364 0 0 0 0
392.176 135.944 4.55364 0 0 0 0
392.176 137.722 4.55364 0 0 0 0
392.176 139.5 4.55364 0 0 0 0
392.176 141.278 4.55364 0 0 0 0
392.176 143.056 4.55364 0 0 0 0
392.176 144.833 4.55364 0 0 0 0
392.176 146.611 4.55364 0 0 0 0
392.176 148.389 4.55364 0 0 0 0
392.176 150.167 4.55364 0 0 0 0
392.176 151.944 4.55364 0 0 0 0
392.176 153.722 4.55364 0 0 0 0
392.176 155.5 4.55364 0 0 0 0
392.176 157.278 4.55364 0 0 0 0
392.176 159.056 4.55364 0 0 0 0
392.176 160.833 4.55364 0 0 0 0
392.176 162.611 4.55364 0 0 0 0
392.176 164.389 4.55364 0 0 0 0
392.176 166.167 4.55364 0 0 0 0
392.176 167.944 4.55364 0 0 0 0
392.176 169.722 4.55364 0 0 0 0
392.176 171.5 4.55364 0 0 0 0
392.176 173.278 4.55364 0 0 0 0
392.176 175.056 4.55364 0 0 0 0
392.176 176.833 4.55364 0 0 0 0
392.176 178.611 4.55364 0 0 0 0
392.176 180.389 4.55364 0 0 0 0
392.176 182.167 4.55364 0 0 0 0
392.176 183.944 4.55364 0 0 0 0
392.176 38.1666 5.52925 0 0 0 0
392.176 39.9444 5.52925 0 0 0 0
392.176 41.7222 5.52925 0 0 0 0
392.176 43.5 5.52925 0 0 0 0
392.176 45.2777 5.52925 0 0 0 0
392.176 47.0555 5.52925 0 0 0 0
392.176 48.8333 5.52925 0 0 0 0
392.176 50.6111 5.52925 0 0 0 0
392.176 52.3889 5.52925 0 0 0 0
392.176 54.1666 5.52925 0 0 0 0
392.176 55.9444 5.52925 0 0 0 0
392.176 57.7222 5.52925 0 0 0 0
392.176 59.5 5.52925 0 0 0 0
392.176 61.2777 5.52925 0 0 0 0
392.176 63.0555 5.52925 0 0 0 0
392.176 64.8333 5.52925 0 0 0 0
392.176 66.6111 5.52925 0 0 0 0
392.176 68.3889 5.52925 0 0 0 0
392.176 70.1666 5.52925 0 0 0 0
392.176 71.9444 5.52925 0 0 0 0
392.176 73.7222 5.52925 0 0 0 0
392.176 75.5 5.52925 0 0 0 0
392.176 77.2777 5.52925 0 0 0 0
392.176 79.0555 5.52925 0 0 0 0
392.176 80.8333 5.52925 0 0 0 0
392.176 82.6111 5.52925 0 0 0 0
392.176 84.3889 5.52925 0 0 0 0
392.176 86.1666 5.52925 0 0 0 0
392.176 87.9444 5.52925 0 0 0 0
392.176 89.7222 5.52925 0 0 0 0
392.176 91.5 5.52925 0 0 0 0
392.176 93.2778 5.52925 0 0 0 0
392.176 95.0556 5.52925 0 0 0 0
392.176 96.8333 5.52925 0 0 0 0
392.176 98.6111 5.52925 0 0 0 0
392.176 100.389 5.52925 0 0 0 0
392.176 102.167 5.52925 0 0 0 0
392.176 103.944 5.52925 0 0 0 0
392.176 105.722 5.52925 0 0 0 0
392.176 107.5 5.52925 0 0 0 0
392.176 109.278 5.52925 0 0 0 0
392.176 111.056 5.52925 0 0 0 0
392.176 112.833 5.52925 0 0 0 0
392.176 114.611 5.52925 0 0 0 0
392.176 116.389 5.52925 0 0 0 0
392.176 118.167 5.52925 0 0 0 0
392.176 119.944 5.52925 0 0 0 0
392.176 121.722 5.52925 0 0 0 0
392.176 123.5 5.52925 0 0 0 0
392.176 125.278 5.52925 0 0 0 0
392.176 127.056 5.52925 0 0 0 0
392.176 128.833 5.52925 0 0 0 0
392.176 130.611 5.52925 0 0 0 0
392.176 132.389 5.52925 0 0 0 0
392.176 134.167 5.52925 0 0 0 0
392.176 135.944 5.52925 0 0 0 0
392.176 137.722 5.52925 0 0 0 0
392.176 139.5 5.52925 0 0 0 0
392.176 141.278 5.52925 0 0 0 0
392.176 143.056 5.52925 0 0 0 0
392.176 144.833 5.52925 0 0 0 0
392.176 146.611 5.52925 0 0 0 0
392.176 148.389 5.52925 0 0 0 0
392.176 150.167 5.52925 0 0 0 0
392.176 151.944 5.52925 0 0 0 0
392.176 153.722 5.52925 0 0 0 0
392.176 155.5 5.52925 0 0 0 0
392.176 157.278 5.52925 0 0 0 0
392.176 159.056 5.52925 0 0 0 0
392.176 160.833 5.52925 0 0 0 0
392.176 162.611 5.52925 0 0 0 0
392.176 164.389 5.52925 0 0 0 0
392.176 166.167 5.52925 0 0 0 0
392.176 167.944 5.52925 0 0 0 0
392.176 169.722 5.52925 0 0 0 0
392.176 171.5 5.52925 0 0 0 0
392.176 173.278 5.52925 0 0 0 0
392.176 175.056 5.52925 0 0 0 0
392.176 176.833 5.52925 0 0 0 0
392.176 178.611 5.52925 0 0 0 0
392.176 180.389 5.52925 0 0 0 0
392.176 182.167 5.52925 0 0 0 0
392.176 183.944 5.52925 56.6971 23.1188 21.7388 8211.74
392.176 38.1666 6.50486 0 0 0 0
392.176 39.9444 6.50486 0 0 0 0
392.176 41.7222 6.50486 0 0 0 0
392.176 43.5 6.50486 0 0 0 0
392.176 45.2777 6.50486 0 0 0 0
392.176 47.0555 6.50486 0 0 0 0
392.176 48.8333 6.50486 0 0 0 0
392.176 50.6111 6.50486 0 0 0 0
392.176 52.3889 6.50486 0 0 0 0
392.176 54.1666 6.50486 0 0 0 0
392.176 55.9444 6.50486 0 0 0 0
392.176 57.7222 6.50486 0 0 0 0
392.176 59.5 6.50486 0 0 0 0
392.176 61.2777 6.50486 0 0 0 0
392.176 63.0555 6.50486 0 0 0 0
392.176 64.8333 6.50486 0 0 0 0
392.176 66.6111 6.50486 0 0 0 0
392.176 68.3889 6.50486 0 0 0 0
392.176 70.1666 6.50486 0 0 0 0
392.176 71.9444 6.50486 0 0 0 0
392.176 73.7222 6.50486 0 0 0 0
392.176 75.5 6.50486 0 0 0 0
392.176 77.2777 6.50486 0 0 0 0
392.176 79.0555 6.50486 0 0 0 0
392.176 80.8333 6.50486 0 0 0 0
392.176 82.6111 6.50486 0 0 0 0
392.176 84.3889 6.50486 0 0 0 0
392.176 86.1666 6.50486 0 0 0 0
392.176 87.9444 6.50486 0 0 0 0
392.176 89.7222 6.50486 0 0 0 0
392.176 91.5 6.50486 0 0 0 0
392.176 93.2778 6.50486 0 0 0 0
392.176 95.0556 6.50486 0 0 0 0
392.176 96.8333 6.50486 0 0 0 0
392.176 98.6111 6.50486 0 0 0 0
392.176 100.389 6.50486 0 0 0 0
392.176 102.167 6.50486 0 0 0 0
392.176 103.944 6.50486 0 0 0 0
392.176 105.722 6.50486 0 0 0 0
392.176 107.5 6.50486 0 0 0 0
392.176 109.278 6.50486 0 0 0 0
392.176 111.056 6.50486 0 0 0 0
392.176 112.833 6.50486 0 0 0 0
392.176 114.611 6.50486 0 0 0 0
392.176 116.389 6.50486 0 0 0 0
392.176 118.167 6.50486 0 0 0 0
392.176 119.944 6.50486 0 0 0 0
392.176 121.722 6.50486 0 0 0 0
392.176 123.5 6.50486 0 0 0 0
392.176 125.278 6.50486 0 0 0 0
392.176 127.056 6.50486 0 0 0 0
392.176 128.833 6.50486 0 0 0 0
392.176 130.611 6.50486 0 0 0 0
392.176 132.389 6.50486 0 0 0 0
392.176 134.167 6.50486 0 0 0 0
392.176 135.944 6.50486 0 0 0 0
392.176 137.722 6.50486 0 0 0 0
392.176 139.5 6.50486 0 0 0 0
392.176 141.278 6.50486 0 0 0 0
392.176 143.056 6.50486 0 0 0 0
392.176 144.833 6.50486 0 0 0 0
392.176 146.611 6.50486 0 0 0 0
392.176 148.389 6.50486 0 0 0 0
392.176 150.167 6.50486 0 0 0 0
392.176 151.944 6.50486 0 0 0 0
392.176 153.722 6.50486 0 0 0 0
392.176 155.5 6.50486 0 0 0 0
392.176 157.278 6.50486 0 0 0 0
392.176 159.056 6.50486 0 0 0 0
392.176 160.833 6.50486 0 0 0 0
392.176 162.611 6.50486 0 0 0 0
392.176 164.389 6.50486 0 0 0 0
392.176 166.167 6.50486 0 0 0 0
392.176 167.944 6.50486 0 0 0 0
392.176 169.722 6.50486 0 0 0 0
392.176 171.5 6.50486 0 0 0 0
392.176 173.278 6.50486 0 0 0 0
392.176 175.056 6.50486 0 0 0 0
392.176 176.833 6.50486 0 0 0 0
392.176 178.611 6.50486 109.463 61.7634 5.34157 9797.5
392.176 180.389 6.50486 112.404 48.2005 19.1631 9865.99
392.176 182.167 6.50486 112.431 39.0998 36.1328 12373.7
392.176 183.944 6.50486 100.923 27.0424 40.7198 -329.887
392.176 38.1666 7.48047 0 0 0 0
392.176 39.9444 7.48047 0 0 0 0
392.176 41.7222 7.48047 0 0 0 0
392.176 43.5 7.48047 0 0 0 0
392.176 45.2777 7.48047 0 0 0 0
392.176 47.0555 7.48047 0 0 0 0
392.176 48.8333 7.48047 0 0 0 0
392.176 50.6111 7.48047 0 0 0 0
392.176 52.3889 7.48047 0 0 0 0
392.176 54.1666 7.48047 0 0 0 0
392.176 55.9444 7.48047 0 0 0 0
392.176 57.7222 7.48047 0 0 0 0
392.176 59.5 7.48047 0 0 0 0
392.176 61.2777 7.48047 0 0 0 0
392.176 63.0555 7.48047 0 0 0 0
392.176 64.8333 7.48047 0 0 0 0
392.176 66.6111 7.48047 0 0 0 0
392.176 68.3889 7.48047 0 0 0 0
392.176 70.1666 7.48047 0 0 0 0
392.176 71.9444 7.48047 0 0 0 0
392.176 73.7222 7.48047 0 0 0 0
392.176 75.5 7.48047 0 0 0 0
392.176 77.2777 7.48047 0 0 0 0
392.176 79.0555 7.48047 0 0 0 0
392.176 80.8333 7.48047 0 0 0 0
392.176 82.6111 7.48047 0 0 0 0
392.176 84.3889 7.48047 0 0 0 0
392.176 86.1666 7.48047 0 0 0 0
392.176 87.9444 7.48047 0 0 0 0
392.176 89.7222 7.48047 0 0 0 0
392.176 91.5 7.48047 0 0 0 0
392.176 93.2778 7.48047 0 0 0 0
392.176 95.0556 7.48047 0 0 0 0
392.176 96.8333 7.48047 0 0 0 0
392.176 98.6111 7.48047 0 0 0 0
392.176 100.389 7.48047 0 0 0 0
392.176 102.167 7.48047 0 0 0 0
392.176 103.944 7.48047 0 0 0 0
392.176 105.722 7.48047 0 0 0 0
392.176 107.5 7.48047 0 0 0 0
392.176 109.278 7.48047 0 0 0 0
392.176 111.056 7.48047 0 0 0 0
392.176 112.833 7.48047 0 0 0 0
392.176 114.611 7.48047 0 0 0 0
392.176 116.389 7.48047 0 0 0 0
392.176 118.167 7.48047 0 0 0 0
392.176 119.944 7.48047 0 0 0 0
392.176 121.722 7.48047 0 0 0 0
392.176 123.5 7.48047 0 0 0 0
392.176 125.278 7.48047 0 0 0 0
392.176 127.056 7.48047 0 0 0 0
392.176 128.833 7.48047 0 0 0 0
392.176 130.611 7.48047 0 0 0 0
392.176 132.389 7.48047 0 0 0 0
392.176 134.167 7.48047 0 0 0 0
392.176 135.944 7.48047 0 0 0 0
392.176 137.722 7.48047 0 0 0 0
392.176 139.5 7.48047 0 0 0 0
392.176 141.278 7.48047 0 0 0 0
392.176 143.056 7.48047 0 0 0 0
392.176 144.833 7.48047 0 0 0 0
392.176 146.611 7.48047 0 0 0 0
392.176 148.389 7.48047 0 0 0 0
392.176 150.167 7.48047 0 0 0 0
392.176 151.944 7.48047 0 0 0 0
392.176 153.722 7.48047 0 0 0 0
392.176 155.5 7.48047 0 0 0 0
392.176 157.278 7.48047 0 0 0 0
392.176 159.056 7.48047 0 0 0 0
392.176 160.833 7.48047 0 0 0 0
392.176 162.611 7.48047 0 0 0 0
392.176 164.389 7.48047 0 0 0 0
392.176 166.167 7.48047 0 0 0 0
392.176 167.944 7.48047 0 0 0 0
392.176 169.722 7.48047 0 0 0 0
392.176 171.5 7.48047 0 0 0 0
392.176 173.278 7.48047 87.4369 53.4384 -0.134808 -18056.6
392.176 175.056 7.48047 112.464 64.2686 -2.10897 -3426.1
392.176 176.833 7.48047 122.675 66.1376 -0.764601 4498.75
392.176 178.611 7.48047 126.473 59.7889 8.18107 11326.7
392.176 180.389 7.48047 128.272 47.0229 27.6158 19075.1
392.176 182.167 7.48047 128.464 32.9438 53.3918 18711.2
392.176 183.944 7.48047 123.511 28.7992 60.9721 9032.85
392.176 38.1666 8.45608 0 0 0 0
392.176 39.9444 8.45608 0 0 0 0
392.176 41.7222 8.45608 0 0 0 0
392.176 43.5 8.45608 0 0 0 0
392.176 45.2777 8.45608 0 0 0 0
392.176 47.0555 8.45608 0 0 0 0
392.176 48.8333 8.45608 0 0 0 0
392.176 50.6111 8.45608 0 0 0 0
392.176 52.3889 8.45608 0 0 0 0
392.176 54.1666 8.45608 0 0 0 0
392.176 55.9444 8.45608 0 0 0 0
392.176 57.7222 8.45608 0 0 0 0
392.176 59.5 8.45608 0 0 0 0
392.176 61.2777 8.45608 0 0 0 0
392.176 63.0555 8.45608 0 0 0 0
392.176 64.8333 8.45608 0 0 0 0
392.176 66.6111 8.45608 0 0 0 0
392.176 68.3889 8.45608 0 0 0 0
392.176 70.1666 8.45608 0 0 0 0
392.176 71.9444 8.45608 0 0 0 0
392.176 73.7222 8.45608 0 0 0 0
392.176 75.5 8.45608 0 0 0 0
392.176 77.2777 8.45608 0 0 0 0
392.176 79.0555 8.45608 0 0 0 0
392.176 80.8333 8.45608 0 0 0 0
392.176 82.6111 8.45608 0 0 0 0
392.176 84.3889 8.45608 0 0 0 0
392.176 86.1666 8.45608 0 0 0 0
392.176 87.9444 8.45608 0 0 0 0
392.176 89.7222 8.45608 0 0 0 0
392.176 91.5 8.45608 0 0 0 0
392.176 93.2778 8.45608 0 0 0 0
392.176 95.0556 8.45608 0 0 0 0
392.176 96.8333 8.45608 0 0 0 0
392.176 98.6111 8.45608 0 0 0 0
392.176 100.389 8.45608 0 0 0 0
392.176 102.167 8.45608 0 0 0 0
392.176 103.944 8.45608 0 0 0 0
392.176 105.722 8.45608 0 0 0 0
392.176 107.5 8.45608 0 0 0 0
392.176 109.278 8.45608 0 0 0 0
392.176 111.056 8.45608 0 0 0 0
392.176 112.833 8.45608 0 0 0 0
392.176 114.611 8.45608 0 0 0 0
392.176 116.389 8.45608 0 0 0 0
392.176 118.167 8.45608 0 0 0 0
392.176 119.944 8.45608 0 0 0 0
392.176 121.722 8.45608 0 0 0 0
392.176 123.5 8.45608 0 0 0 0
392.176 125.278 8.45608 0 0 0 0
392.176 127.056 8.45608 0 0 0 0
392.176 128.833 8.45608 0 0 0 0
392.176 130.611 8.45608 0 0 0 0
392.176 132.389 8.45608 0 0 0 0
392.176 134.167 8.45608 0 0 0 0
392.176 135.944 8.45608 0 0 0 0
392.176 137.722 8.45608 0 0 0 0
392.176 139.5 8.45608 0 0 0 0
392.176 141.278 8.45608 0 0 0 0
392.176 143.056 8.45608 0 0 0 0
392.176 144.833 8.45608 0 0 0 0
392.176 146.611 8.45608 0 0 0 0
392.176 148.389 8.45608 0 0 0 0
392.176 150.167 8.45608 0 0 0 0
392.176 151.944 8.45608 0 0 0 0
392.176 153.722 8.45608 0 0 0 0
392.176 155.5 8.45608 0 0 0 0
392.176 157.278 8.45608 0 0 0 0
392.176 159.056 8.45608 0 0 0 0
392.176 160.833 8.45608 0 0 0 0
392.176 162.611 8.45608 0 0 0 0
392.176 164.389 8.45608 0 0 0 0
392.176 166.167 8.45608 0 0 0 0
392.176 167.944 8.45608 0 0 0 0
392.176 169.722 8.45608 91.2791 79.0677 7.53191 -14289.2
392.176 171.5 8.45608 106.342 70.2861 4.10783 -12366.2
392.176 173.278 8.45608 115.715 69.9714 -1.23525 -12520.3
392.176 175.056 8.45608 124.232 67.4383 -3.65078 -2631.22
392.176 176.833 8.45608 129.69 64.5725 -0.704305 7276.26
392.176 178.611 8.45608 131.918 55.2352 12.5207 21389.1
392.176 180.389 8.45608 135.16 35.7884 42.309 30287.7
392.176 182.167 8.45608 137.512 20.8983 70.3574 23502.6
392.176 183.944 8.45608 137.895 17.7408 78.8424 16933.8
392.176 38.1666 9.43169 0 0 0 0
392.176 39.9444 9.43169 0 0 0 0
392.176 41.7222 9.43169 0 0 0 0
392.176 43.5 9.43169 0 0 0 0
392.176 45.2777 9.43169 0 0 0 0
392.176 47.0555 9.43169 0 0 0 0
392.176 48.8333 9.43169 0 0 0 0
392.176 50.6111 9.43169 0 0 0 0
392.176 52.3889 9.43169 0 0 0 0
392.176 54.1666 9.43169 0 0 0 0
392.176 55.9444 9.43169 0 0 0 0
392.176 57.7222 9.43169 0 0 0 0
392.176 59.5 9.43169 0 0 0 0
392.176 61.2777 9.43169 0 0 0 0
392.176 63.0555 9.43169 0 0 0 0
392.176 64.8333 9.43169 0 0 0 0
392.176 66.6111 9.43169 0 0 0 0
392.176 68.3889 9.43169 0 0 0 0
392.176 70.1666 9.43169 0 0 0 0
392.176 71.9444 9.43169 0 0 0 0
392.176 73.7222 9.43169 0 0 0 0
392.176 75.5 9.43169 0 0 0 0
392.176 77.2777 9.43169 0 0 0 0
392.176 79.0555 9.43169 0 0 0 0
392.176 80.8333 9.43169 0 0 0 0
392.176 82.6111 9.43169 0 0 0 0
392.176 84.3889 9.43169 0 0 0 0
392.176 86.1666 9.43169 0 0 0 0
392.176 87.9444 9.43169 0 0 0 0
392.176 89.7222 9.43169 0 0 0 0
392.176 91.5 9.43169 0 0 0 0
392.176 93.2778 9.43169 0 0 0 0
392.176 95.0556 9.43169 0 0 0 0
392.176 96.8333 9.43169 0 0 0 0
392.176 98.6111 9.43169 0 0 0 0
392.176 100.389 9.43169 0 0 0 0
392.176 102.167 9.43169 136.833 48.0807 4.37903 -1440.52
392.176 103.944 9.43169 131.217 37.0466 5.18891 -6626.39
392.176 105.722 9.43169 123.809 29.3472 5.68144 -6161.93
392.176 107.5 9.43169 119.086 23.3582 5.00869 -5701.88
392.176 109.278 9.43169 120.053 19.8704 3.83782 -3784.07
392.176 111.056 9.43169 125.66 18.351 2.85829 -1381.16
392.176 112.833 9.43169 131.639 16.4598 1.48105 -197.575
392.176 114.611 9.43169 138.301 14.1769 0.415232 -99.8481
392.176 116.389 9.43169 143.955 13.3025 -0.0429289 -52.3056
392.176 118.167 9.43169 148.36 13.556 0.0823438 513.622
392.176 119.944 9.43169 153.119 14.7117 -0.0928687 1451.27
392.176 121.722 9.43169 157.804 15.5601 -0.250076 1658.33
392.176 123.5 9.43169 161.168 15.7363 -0.394006 600.905
392.176 125.278 9.43169 165.213 17.0655 -0.739406 548.406
392.176 127.056 9.43169 167.402 18.6238 -1.06565 548.633
392.176 128.833 9.43169 168.964 20.7951 -1.43374 226.326
392.176 130.611 9.43169 169.354 24.6931 -1.94453 -186.773
392.176 132.389 9.43169 168.74 30.065 -2.69676 -1017.71
392.176 134.167 9.43169 168.153 36.7413 -4.19922 -1548.06
392.176 135.944 9.43169 167.372 44.8447 -6.30128 -1717.72
392.176 137.722 9.43169 165.733 54.877 -8.39998 -1475.78
392.176 139.5 9.43169 163.636 67.2676 -10.3179 -1099.02
392.176 141.278 9.43169 160.327 80.9023 -12.1036 -1479.65
392.176 143.056 9.43169 155.89 97.4382 -13.2271 -1462.15
392.176 144.833 9.43169 150.391 115.993 -13.9131 -691.441
392.176 146.611 9.43169 144.123 134.789 -13.1709 776.569
392.176 148.389 9.43169 136.667 150.521 -11.7749 -583.898
392.176 150.167 9.43169 130.605 164.938 -9.83092 -834.661