TITLE = "PIV data, model ID: 1, wind tunnel: TWG"
VARIABLES = "x", "y", "z", "u", "v", "w", "vorticity"
ZONE I=83, J=62, F=Point, T="xi = 0.9"
441.198 38.5 -0.87319 0 0 0 0
441.198 40.2778 -0.87319 0 0 0 0
441.198 42.0556 -0.87319 0 0 0 0
441.198 43.8334 -0.87319 0 0 0 0
441.198 45.6111 -0.87319 0 0 0 0
441.198 47.3889 -0.87319 0 0 0 0
441.198 49.1667 -0.87319 0 0 0 0
441.198 50.9445 -0.87319 0 0 0 0
441.198 52.7223 -0.87319 0 0 0 0
441.198 54.5 -0.87319 0 0 0 0
441.198 56.2778 -0.87319 0 0 0 0
441.198 58.0556 -0.87319 0 0 0 0
441.198 59.8334 -0.87319 0 0 0 0
441.198 61.6111 -0.87319 0 0 0 0
441.198 63.3889 -0.87319 0 0 0 0
441.198 65.1667 -0.87319 0 0 0 0
441.198 66.9445 -0.87319 0 0 0 0
441.198 68.7223 -0.87319 0 0 0 0
441.198 70.5 -0.87319 0 0 0 0
441.198 72.2778 -0.87319 0 0 0 0
441.198 74.0556 -0.87319 0 0 0 0
441.198 75.8334 -0.87319 0 0 0 0
441.198 77.6111 -0.87319 0 0 0 0
441.198 79.3889 -0.87319 0 0 0 0
441.198 81.1667 -0.87319 0 0 0 0
441.198 82.9445 -0.87319 0 0 0 0
441.198 84.7223 -0.87319 0 0 0 0
441.198 86.5 -0.87319 0 0 0 0
441.198 88.2778 -0.87319 0 0 0 0
441.198 90.0556 -0.87319 0 0 0 0
441.198 91.8334 -0.87319 0 0 0 0
441.198 93.6111 -0.87319 0 0 0 0
441.198 95.3889 -0.87319 0 0 0 0
441.198 97.1667 -0.87319 0 0 0 0
441.198 98.9444 -0.87319 0 0 0 0
441.198 100.722 -0.87319 0 0 0 0
441.198 102.5 -0.87319 0 0 0 0
441.198 104.278 -0.87319 0 0 0 0
441.198 106.056 -0.87319 0 0 0 0
441.198 107.833 -0.87319 0 0 0 0
441.198 109.611 -0.87319 0 0 0 0
441.198 111.389 -0.87319 0 0 0 0
441.198 113.167 -0.87319 0 0 0 0
441.198 114.944 -0.87319 0 0 0 0
441.198 116.722 -0.87319 0 0 0 0
441.198 118.5 -0.87319 0 0 0 0
441.198 120.278 -0.87319 0 0 0 0
441.198 122.056 -0.87319 0 0 0 0
441.198 123.833 -0.87319 0 0 0 0
441.198 125.611 -0.87319 0 0 0 0
441.198 127.389 -0.87319 0 0 0 0
441.198 129.167 -0.87319 0 0 0 0
441.198 130.944 -0.87319 0 0 0 0
441.198 132.722 -0.87319 0 0 0 0
441.198 134.5 -0.87319 0 0 0 0
441.198 136.278 -0.87319 0 0 0 0
441.198 138.056 -0.87319 0 0 0 0
441.198 139.833 -0.87319 0 0 0 0
441.198 141.611 -0.87319 0 0 0 0
441.198 143.389 -0.87319 0 0 0 0
441.198 145.167 -0.87319 0 0 0 0
441.198 146.944 -0.87319 0 0 0 0
441.198 148.722 -0.87319 0 0 0 0
441.198 150.5 -0.87319 0 0 0 0
441.198 152.278 -0.87319 0 0 0 0
441.198 154.056 -0.87319 0 0 0 0
441.198 155.833 -0.87319 0 0 0 0
441.198 157.611 -0.87319 0 0 0 0
441.198 159.389 -0.87319 0 0 0 0
441.198 161.167 -0.87319 0 0 0 0
441.198 162.944 -0.87319 0 0 0 0
441.198 164.722 -0.87319 0 0 0 0
441.198 166.5 -0.87319 0 0 0 0
441.198 168.278 -0.87319 0 0 0 0
441.198 170.056 -0.87319 0 0 0 0
441.198 171.833 -0.87319 0 0 0 0
441.198 173.611 -0.87319 0 0 0 0
441.198 175.389 -0.87319 0 0 0 0
441.198 177.167 -0.87319 0 0 0 0
441.198 178.944 -0.87319 0 0 0 0
441.198 180.722 -0.87319 0 0 0 0
441.198 182.5 -0.87319 0 0 0 0
441.198 184.278 -0.87319 0 0 0 0
441.198 38.5 0.10241 0 0 0 0
441.198 40.2778 0.10241 0 0 0 0
441.198 42.0556 0.10241 0 0 0 0
441.198 43.8334 0.10241 0 0 0 0
441.198 45.6111 0.10241 0 0 0 0
441.198 47.3889 0.10241 0 0 0 0
441.198 49.1667 0.10241 0 0 0 0
441.198 50.9445 0.10241 0 0 0 0
441.198 52.7223 0.10241 0 0 0 0
441.198 54.5 0.10241 0 0 0 0
441.198 56.2778 0.10241 0 0 0 0
441.198 58.0556 0.10241 0 0 0 0
441.198 59.8334 0.10241 0 0 0 0
441.198 61.6111 0.10241 0 0 0 0
441.198 63.3889 0.10241 0 0 0 0
441.198 65.1667 0.10241 0 0 0 0
441.198 66.9445 0.10241 0 0 0 0
441.198 68.7223 0.10241 0 0 0 0
441.198 70.5 0.10241 0 0 0 0
441.198 72.2778 0.10241 0 0 0 0
441.198 74.0556 0.10241 0 0 0 0
441.198 75.8334 0.10241 0 0 0 0
441.198 77.6111 0.10241 0 0 0 0
441.198 79.3889 0.10241 0 0 0 0
441.198 81.1667 0.10241 0 0 0 0
441.198 82.9445 0.10241 0 0 0 0
441.198 84.7223 0.10241 0 0 0 0
441.198 86.5 0.10241 0 0 0 0
441.198 88.2778 0.10241 0 0 0 0
441.198 90.0556 0.10241 0 0 0 0
441.198 91.8334 0.10241 0 0 0 0
441.198 93.6111 0.10241 0 0 0 0
441.198 95.3889 0.10241 0 0 0 0
441.198 97.1667 0.10241 0 0 0 0
441.198 98.9444 0.10241 0 0 0 0
441.198 100.722 0.10241 0 0 0 0
441.198 102.5 0.10241 0 0 0 0
441.198 104.278 0.10241 0 0 0 0
441.198 106.056 0.10241 0 0 0 0
441.198 107.833 0.10241 0 0 0 0
441.198 109.611 0.10241 0 0 0 0
441.198 111.389 0.10241 0 0 0 0
441.198 113.167 0.10241 0 0 0 0
441.198 114.944 0.10241 0 0 0 0
441.198 116.722 0.10241 0 0 0 0
441.198 118.5 0.10241 0 0 0 0
441.198 120.278 0.10241 0 0 0 0
441.198 122.056 0.10241 0 0 0 0
441.198 123.833 0.10241 0 0 0 0
441.198 125.611 0.10241 0 0 0 0
441.198 127.389 0.10241 0 0 0 0
441.198 129.167 0.10241 0 0 0 0
441.198 130.944 0.10241 0 0 0 0
441.198 132.722 0.10241 0 0 0 0
441.198 134.5 0.10241 0 0 0 0
441.198 136.278 0.10241 0 0 0 0
441.198 138.056 0.10241 0 0 0 0
441.198 139.833 0.10241 0 0 0 0
441.198 141.611 0.10241 0 0 0 0
441.198 143.389 0.10241 0 0 0 0
441.198 145.167 0.10241 0 0 0 0
441.198 146.944 0.10241 0 0 0 0
441.198 148.722 0.10241 0 0 0 0
441.198 150.5 0.10241 0 0 0 0
441.198 152.278 0.10241 0 0 0 0
441.198 154.056 0.10241 0 0 0 0
441.198 155.833 0.10241 0 0 0 0
441.198 157.611 0.10241 0 0 0 0
441.198 159.389 0.10241 0 0 0 0
441.198 161.167 0.10241 0 0 0 0
441.198 162.944 0.10241 0 0 0 0
441.198 164.722 0.10241 0 0 0 0
441.198 166.5 0.10241 0 0 0 0
441.198 168.278 0.10241 0 0 0 0
441.198 170.056 0.10241 0 0 0 0
441.198 171.833 0.10241 0 0 0 0
441.198 173.611 0.10241 0 0 0 0
441.198 175.389 0.10241 0 0 0 0
441.198 177.167 0.10241 0 0 0 0
441.198 178.944 0.10241 0 0 0 0
441.198 180.722 0.10241 0 0 0 0
441.198 182.5 0.10241 0 0 0 0
441.198 184.278 0.10241 0 0 0 0
441.198 38.5 1.07801 0 0 0 0
441.198 40.2778 1.07801 0 0 0 0
441.198 42.0556 1.07801 0 0 0 0
441.198 43.8334 1.07801 0 0 0 0
441.198 45.6111 1.07801 0 0 0 0
441.198 47.3889 1.07801 0 0 0 0
441.198 49.1667 1.07801 0 0 0 0
441.198 50.9445 1.07801 0 0 0 0
441.198 52.7223 1.07801 0 0 0 0
441.198 54.5 1.07801 0 0 0 0
441.198 56.2778 1.07801 0 0 0 0
441.198 58.0556 1.07801 0 0 0 0
441.198 59.8334 1.07801 0 0 0 0
441.198 61.6111 1.07801 0 0 0 0
441.198 63.3889 1.07801 0 0 0 0
441.198 65.1667 1.07801 0 0 0 0
441.198 66.9445 1.07801 0 0 0 0
441.198 68.7223 1.07801 0 0 0 0
441.198 70.5 1.07801 0 0 0 0
441.198 72.2778 1.07801 0 0 0 0
441.198 74.0556 1.07801 0 0 0 0
441.198 75.8334 1.07801 0 0 0 0
441.198 77.6111 1.07801 0 0 0 0
441.198 79.3889 1.07801 0 0 0 0
441.198 81.1667 1.07801 0 0 0 0
441.198 82.9445 1.07801 0 0 0 0
441.198 84.7223 1.07801 0 0 0 0
441.198 86.5 1.07801 0 0 0 0
441.198 88.2778 1.07801 0 0 0 0
441.198 90.0556 1.07801 0 0 0 0
441.198 91.8334 1.07801 0 0 0 0
441.198 93.6111 1.07801 0 0 0 0
441.198 95.3889 1.07801 0 0 0 0
441.198 97.1667 1.07801 0 0 0 0
441.198 98.9444 1.07801 0 0 0 0
441.198 100.722 1.07801 0 0 0 0
441.198 102.5 1.07801 0 0 0 0
441.198 104.278 1.07801 0 0 0 0
441.198 106.056 1.07801 0 0 0 0
441.198 107.833 1.07801 0 0 0 0
441.198 109.611 1.07801 0 0 0 0
441.198 111.389 1.07801 0 0 0 0
441.198 113.167 1.07801 0 0 0 0
441.198 114.944 1.07801 0 0 0 0
441.198 116.722 1.07801 0 0 0 0
441.198 118.5 1.07801 0 0 0 0
441.198 120.278 1.07801 0 0 0 0
441.198 122.056 1.07801 0 0 0 0
441.198 123.833 1.07801 0 0 0 0
441.198 125.611 1.07801 0 0 0 0
441.198 127.389 1.07801 0 0 0 0
441.198 129.167 1.07801 0 0 0 0
441.198 130.944 1.07801 0 0 0 0
441.198 132.722 1.07801 0 0 0 0
441.198 134.5 1.07801 0 0 0 0
441.198 136.278 1.07801 0 0 0 0
441.198 138.056 1.07801 0 0 0 0
441.198 139.833 1.07801 0 0 0 0
441.198 141.611 1.07801 0 0 0 0
441.198 143.389 1.07801 0 0 0 0
441.198 145.167 1.07801 0 0 0 0
441.198 146.944 1.07801 0 0 0 0
441.198 148.722 1.07801 0 0 0 0
441.198 150.5 1.07801 0 0 0 0
441.198 152.278 1.07801 0 0 0 0
441.198 154.056 1.07801 0 0 0 0
441.198 155.833 1.07801 0 0 0 0
441.198 157.611 1.07801 0 0 0 0
441.198 159.389 1.07801 0 0 0 0
441.198 161.167 1.07801 0 0 0 0
441.198 162.944 1.07801 0 0 0 0
441.198 164.722 1.07801 0 0 0 0
441.198 166.5 1.07801 0 0 0 0
441.198 168.278 1.07801 0 0 0 0
441.198 170.056 1.07801 0 0 0 0
441.198 171.833 1.07801 0 0 0 0
441.198 173.611 1.07801 0 0 0 0
441.198 175.389 1.07801 0 0 0 0
441.198 177.167 1.07801 0 0 0 0
441.198 178.944 1.07801 0 0 0 0
441.198 180.722 1.07801 0 0 0 0
441.198 182.5 1.07801 0 0 0 0
441.198 184.278 1.07801 0 0 0 0
441.198 38.5 2.05361 0 0 0 0
441.198 40.2778 2.05361 0 0 0 0
441.198 42.0556 2.05361 0 0 0 0
441.198 43.8334 2.05361 0 0 0 0
441.198 45.6111 2.05361 0 0 0 0
441.198 47.3889 2.05361 0 0 0 0
441.198 49.1667 2.05361 0 0 0 0
441.198 50.9445 2.05361 0 0 0 0
441.198 52.7223 2.05361 0 0 0 0
441.198 54.5 2.05361 0 0 0 0
441.198 56.2778 2.05361 0 0 0 0
441.198 58.0556 2.05361 0 0 0 0
441.198 59.8334 2.05361 0 0 0 0
441.198 61.6111 2.05361 0 0 0 0
441.198 63.3889 2.05361 0 0 0 0
441.198 65.1667 2.05361 0 0 0 0
441.198 66.9445 2.05361 0 0 0 0
441.198 68.7223 2.05361 0 0 0 0
441.198 70.5 2.05361 0 0 0 0
441.198 72.2778 2.05361 0 0 0 0
441.198 74.0556 2.05361 0 0 0 0
441.198 75.8334 2.05361 0 0 0 0
441.198 77.6111 2.05361 0 0 0 0
441.198 79.3889 2.05361 0 0 0 0
441.198 81.1667 2.05361 0 0 0 0
441.198 82.9445 2.05361 0 0 0 0
441.198 84.7223 2.05361 0 0 0 0
441.198 86.5 2.05361 0 0 0 0
441.198 88.2778 2.05361 0 0 0 0
441.198 90.0556 2.05361 0 0 0 0
441.198 91.8334 2.05361 0 0 0 0
441.198 93.6111 2.05361 0 0 0 0
441.198 95.3889 2.05361 0 0 0 0
441.198 97.1667 2.05361 0 0 0 0
441.198 98.9444 2.05361 0 0 0 0
441.198 100.722 2.05361 0 0 0 0
441.198 102.5 2.05361 0 0 0 0
441.198 104.278 2.05361 0 0 0 0
441.198 106.056 2.05361 0 0 0 0
441.198 107.833 2.05361 0 0 0 0
441.198 109.611 2.05361 0 0 0 0
441.198 111.389 2.05361 0 0 0 0
441.198 113.167 2.05361 0 0 0 0
441.198 114.944 2.05361 0 0 0 0
441.198 116.722 2.05361 0 0 0 0
441.198 118.5 2.05361 0 0 0 0
441.198 120.278 2.05361 0 0 0 0
441.198 122.056 2.05361 0 0 0 0
441.198 123.833 2.05361 0 0 0 0
441.198 125.611 2.05361 0 0 0 0
441.198 127.389 2.05361 0 0 0 0
441.198 129.167 2.05361 0 0 0 0
441.198 130.944 2.05361 0 0 0 0
441.198 132.722 2.05361 0 0 0 0
441.198 134.5 2.05361 0 0 0 0
441.198 136.278 2.05361 0 0 0 0
441.198 138.056 2.05361 0 0 0 0
441.198 139.833 2.05361 0 0 0 0
441.198 141.611 2.05361 0 0 0 0
441.198 143.389 2.05361 0 0 0 0
441.198 145.167 2.05361 0 0 0 0
441.198 146.944 2.05361 0 0 0 0
441.198 148.722 2.05361 0 0 0 0
441.198 150.5 2.05361 0 0 0 0
441.198 152.278 2.05361 0 0 0 0
441.198 154.056 2.05361 0 0 0 0
441.198 155.833 2.05361 0 0 0 0
441.198 157.611 2.05361 0 0 0 0
441.198 159.389 2.05361 0 0 0 0
441.198 161.167 2.05361 0 0 0 0
441.198 162.944 2.05361 0 0 0 0
441.198 164.722 2.05361 0 0 0 0
441.198 166.5 2.05361 0 0 0 0
441.198 168.278 2.05361 0 0 0 0
441.198 170.056 2.05361 0 0 0 0
441.198 171.833 2.05361 0 0 0 0
441.198 173.611 2.05361 0 0 0 0
441.198 175.389 2.05361 0 0 0 0
441.198 177.167 2.05361 0 0 0 0
441.198 178.944 2.05361 0 0 0 0
441.198 180.722 2.05361 0 0 0 0
441.198 182.5 2.05361 0 0 0 0
441.198 184.278 2.05361 0 0 0 0
441.198 38.5 3.02921 0 0 0 0
441.198 40.2778 3.02921 0 0 0 0
441.198 42.0556 3.02921 0 0 0 0
441.198 43.8334 3.02921 0 0 0 0
441.198 45.6111 3.02921 0 0 0 0
441.198 47.3889 3.02921 0 0 0 0
441.198 49.1667 3.02921 0 0 0 0
441.198 50.9445 3.02921 0 0 0 0
441.198 52.7223 3.02921 0 0 0 0
441.198 54.5 3.02921 0 0 0 0
441.198 56.2778 3.02921 0 0 0 0
441.198 58.0556 3.02921 0 0 0 0
441.198 59.8334 3.02921 0 0 0 0
441.198 61.6111 3.02921 0 0 0 0
441.198 63.3889 3.02921 0 0 0 0
441.198 65.1667 3.02921 0 0 0 0
441.198 66.9445 3.02921 0 0 0 0
441.198 68.7223 3.02921 0 0 0 0
441.198 70.5 3.02921 0 0 0 0
441.198 72.2778 3.02921 0 0 0 0
441.198 74.0556 3.02921 0 0 0 0
441.198 75.8334 3.02921 0 0 0 0
441.198 77.6111 3.02921 0 0 0 0
441.198 79.3889 3.02921 0 0 0 0
441.198 81.1667 3.02921 0 0 0 0
441.198 82.9445 3.02921 0 0 0 0
441.198 84.7223 3.02921 0 0 0 0
441.198 86.5 3.02921 0 0 0 0
441.198 88.2778 3.02921 0 0 0 0
441.198 90.0556 3.02921 0 0 0 0
441.198 91.8334 3.02921 0 0 0 0
441.198 93.6111 3.02921 0 0 0 0
441.198 95.3889 3.02921 0 0 0 0
441.198 97.1667 3.02921 0 0 0 0
441.198 98.9444 3.02921 0 0 0 0
441.198 100.722 3.02921 0 0 0 0
441.198 102.5 3.02921 0 0 0 0
441.198 104.278 3.02921 0 0 0 0
441.198 106.056 3.02921 0 0 0 0
441.198 107.833 3.02921 0 0 0 0
441.198 109.611 3.02921 0 0 0 0
441.198 111.389 3.02921 0 0 0 0
441.198 113.167 3.02921 0 0 0 0
441.198 114.944 3.02921 0 0 0 0
441.198 116.722 3.02921 0 0 0 0
441.198 118.5 3.02921 0 0 0 0
441.198 120.278 3.02921 0 0 0 0
441.198 122.056 3.02921 0 0 0 0
441.198 123.833 3.02921 0 0 0 0
441.198 125.611 3.02921 0 0 0 0
441.198 127.389 3.02921 0 0 0 0
441.198 129.167 3.02921 0 0 0 0
441.198 130.944 3.02921 0 0 0 0
441.198 132.722 3.02921 0 0 0 0
441.198 134.5 3.02921 0 0 0 0
441.198 136.278 3.02921 0 0 0 0
441.198 138.056 3.02921 0 0 0 0
441.198 139.833 3.02921 0 0 0 0
441.198 141.611 3.02921 0 0 0 0
441.198 143.389 3.02921 0 0 0 0
441.198 145.167 3.02921 0 0 0 0
441.198 146.944 3.02921 0 0 0 0
441.198 148.722 3.02921 0 0 0 0
441.198 150.5 3.02921 0 0 0 0
441.198 152.278 3.02921 0 0 0 0
441.198 154.056 3.02921 0 0 0 0
441.198 155.833 3.02921 0 0 0 0
441.198 157.611 3.02921 0 0 0 0
441.198 159.389 3.02921 0 0 0 0
441.198 161.167 3.02921 0 0 0 0
441.198 162.944 3.02921 0 0 0 0
441.198 164.722 3.02921 0 0 0 0
441.198 166.5 3.02921 0 0 0 0
441.198 168.278 3.02921 0 0 0 0
441.198 170.056 3.02921 0 0 0 0
441.198 171.833 3.02921 0 0 0 0
441.198 173.611 3.02921 0 0 0 0
441.198 175.389 3.02921 0 0 0 0
441.198 177.167 3.02921 0 0 0 0
441.198 178.944 3.02921 0 0 0 0
441.198 180.722 3.02921 0 0 0 0
441.198 182.5 3.02921 0 0 0 0
441.198 184.278 3.02921 0 0 0 0
441.198 38.5 4.00486 0 0 0 0
441.198 40.2778 4.00486 0 0 0 0
441.198 42.0556 4.00486 0 0 0 0
441.198 43.8334 4.00486 0 0 0 0
441.198 45.6111 4.00486 0 0 0 0
441.198 47.3889 4.00486 0 0 0 0
441.198 49.1667 4.00486 0 0 0 0
441.198 50.9445 4.00486 0 0 0 0
441.198 52.7223 4.00486 0 0 0 0
441.198 54.5 4.00486 0 0 0 0
441.198 56.2778 4.00486 0 0 0 0
441.198 58.0556 4.00486 0 0 0 0
441.198 59.8334 4.00486 0 0 0 0
441.198 61.6111 4.00486 0 0 0 0
441.198 63.3889 4.00486 0 0 0 0
441.198 65.1667 4.00486 0 0 0 0
441.198 66.9445 4.00486 0 0 0 0
441.198 68.7223 4.00486 0 0 0 0
441.198 70.5 4.00486 0 0 0 0
441.198 72.2778 4.00486 0 0 0 0
441.198 74.0556 4.00486 0 0 0 0
441.198 75.8334 4.00486 0 0 0 0
441.198 77.6111 4.00486 0 0 0 0
441.198 79.3889 4.00486 0 0 0 0
441.198 81.1667 4.00486 0 0 0 0
441.198 82.9445 4.00486 0 0 0 0
441.198 84.7223 4.00486 0 0 0 0
441.198 86.5 4.00486 0 0 0 0
441.198 88.2778 4.00486 0 0 0 0
441.198 90.0556 4.00486 0 0 0 0
441.198 91.8334 4.00486 0 0 0 0
441.198 93.6111 4.00486 0 0 0 0
441.198 95.3889 4.00486 0 0 0 0
441.198 97.1667 4.00486 0 0 0 0
441.198 98.9444 4.00486 0 0 0 0
441.198 100.722 4.00486 0 0 0 0
441.198 102.5 4.00486 0 0 0 0
441.198 104.278 4.00486 0 0 0 0
441.198 106.056 4.00486 0 0 0 0
441.198 107.833 4.00486 0 0 0 0
441.198 109.611 4.00486 0 0 0 0
441.198 111.389 4.00486 0 0 0 0
441.198 113.167 4.00486 0 0 0 0
441.198 114.944 4.00486 0 0 0 0
441.198 116.722 4.00486 0 0 0 0
441.198 118.5 4.00486 0 0 0 0
441.198 120.278 4.00486 0 0 0 0
441.198 122.056 4.00486 0 0 0 0
441.198 123.833 4.00486 0 0 0 0
441.198 125.611 4.00486 0 0 0 0
441.198 127.389 4.00486 0 0 0 0
441.198 129.167 4.00486 0 0 0 0
441.198 130.944 4.00486 0 0 0 0
441.198 132.722 4.00486 0 0 0 0
441.198 134.5 4.00486 0 0 0 0
441.198 136.278 4.00486 0 0 0 0
441.198 138.056 4.00486 0 0 0 0
441.198 139.833 4.00486 0 0 0 0
441.198 141.611 4.00486 0 0 0 0
441.198 143.389 4.00486 0 0 0 0
441.198 145.167 4.00486 0 0 0 0
441.198 146.944 4.00486 0 0 0 0
441.198 148.722 4.00486 0 0 0 0
441.198 150.5 4.00486 0 0 0 0
441.198 152.278 4.00486 0 0 0 0
441.198 154.056 4.00486 0 0 0 0
441.198 155.833 4.00486 0 0 0 0
441.198 157.611 4.00486 0 0 0 0
441.198 159.389 4.00486 0 0 0 0
441.198 161.167 4.00486 0 0 0 0
441.198 162.944 4.00486 0 0 0 0
441.198 164.722 4.00486 0 0 0 0
441.198 166.5 4.00486 0 0 0 0
441.198 168.278 4.00486 0 0 0 0
441.198 170.056 4.00486 0 0 0 0
441.198 171.833 4.00486 0 0 0 0
441.198 173.611 4.00486 0 0 0 0
441.198 175.389 4.00486 0 0 0 0
441.198 177.167 4.00486 0 0 0 0
441.198 178.944 4.00486 0 0 0 0
441.198 180.722 4.00486 0 0 0 0
441.198 182.5 4.00486 0 0 0 0
441.198 184.278 4.00486 0 0 0 0
441.198 38.5 4.98047 0 0 0 0
441.198 40.2778 4.98047 0 0 0 0
441.198 42.0556 4.98047 0 0 0 0
441.198 43.8334 4.98047 0 0 0 0
441.198 45.6111 4.98047 0 0 0 0
441.198 47.3889 4.98047 0 0 0 0
441.198 49.1667 4.98047 0 0 0 0
441.198 50.9445 4.98047 0 0 0 0
441.198 52.7223 4.98047 0 0 0 0
441.198 54.5 4.98047 0 0 0 0
441.198 56.2778 4.98047 0 0 0 0
441.198 58.0556 4.98047 0 0 0 0
441.198 59.8334 4.98047 0 0 0 0
441.198 61.6111 4.98047 0 0 0 0
441.198 63.3889 4.98047 0 0 0 0
441.198 65.1667 4.98047 0 0 0 0
441.198 66.9445 4.98047 0 0 0 0
441.198 68.7223 4.98047 0 0 0 0
441.198 70.5 4.98047 0 0 0 0
441.198 72.2778 4.98047 0 0 0 0
441.198 74.0556 4.98047 0 0 0 0
441.198 75.8334 4.98047 0 0 0 0
441.198 77.6111 4.98047 0 0 0 0
441.198 79.3889 4.98047 0 0 0 0
441.198 81.1667 4.98047 0 0 0 0
441.198 82.9445 4.98047 0 0 0 0
441.198 84.7223 4.98047 0 0 0 0
441.198 86.5 4.98047 0 0 0 0
441.198 88.2778 4.98047 0 0 0 0
441.198 90.0556 4.98047 0 0 0 0
441.198 91.8334 4.98047 0 0 0 0
441.198 93.6111 4.98047 0 0 0 0
441.198 95.3889 4.98047 0 0 0 0
441.198 97.1667 4.98047 0 0 0 0
441.198 98.9444 4.98047 0 0 0 0
441.198 100.722 4.98047 0 0 0 0
441.198 102.5 4.98047 0 0 0 0
441.198 104.278 4.98047 0 0 0 0
441.198 106.056 4.98047 0 0 0 0
441.198 107.833 4.98047 0 0 0 0
441.198 109.611 4.98047 0 0 0 0
441.198 111.389 4.98047 0 0 0 0
441.198 113.167 4.98047 0 0 0 0
441.198 114.944 4.98047 0 0 0 0
441.198 116.722 4.98047 0 0 0 0
441.198 118.5 4.98047 0 0 0 0
441.198 120.278 4.98047 0 0 0 0
441.198 122.056 4.98047 0 0 0 0
441.198 123.833 4.98047 0 0 0 0
441.198 125.611 4.98047 0 0 0 0
441.198 127.389 4.98047 0 0 0 0
441.198 129.167 4.98047 0 0 0 0
441.198 130.944 4.98047 0 0 0 0
441.198 132.722 4.98047 0 0 0 0
441.198 134.5 4.98047 0 0 0 0
441.198 136.278 4.98047 0 0 0 0
441.198 138.056 4.98047 0 0 0 0
441.198 139.833 4.98047 0 0 0 0
441.198 141.611 4.98047 0 0 0 0
441.198 143.389 4.98047 0 0 0 0
441.198 145.167 4.98047 0 0 0 0
441.198 146.944 4.98047 0 0 0 0
441.198 148.722 4.98047 0 0 0 0
441.198 150.5 4.98047 0 0 0 0
441.198 152.278 4.98047 0 0 0 0
441.198 154.056 4.98047 0 0 0 0
441.198 155.833 4.98047 0 0 0 0
441.198 157.611 4.98047 0 0 0 0
441.198 159.389 4.98047 0 0 0 0
441.198 161.167 4.98047 0 0 0 0
441.198 162.944 4.98047 0 0 0 0
441.198 164.722 4.98047 0 0 0 0
441.198 166.5 4.98047 0 0 0 0
441.198 168.278 4.98047 0 0 0 0
441.198 170.056 4.98047 0 0 0 0
441.198 171.833 4.98047 0 0 0 0
441.198 173.611 4.98047 0 0 0 0
441.198 175.389 4.98047 0 0 0 0
441.198 177.167 4.98047 0 0 0 0
441.198 178.944 4.98047 0 0 0 0
441.198 180.722 4.98047 0 0 0 0
441.198 182.5 4.98047 0 0 0 0
441.198 184.278 4.98047 0 0 0 0
441.198 38.5 5.95608 0 0 0 0
441.198 40.2778 5.95608 0 0 0 0
441.198 42.0556 5.95608 0 0 0 0
441.198 43.8334 5.95608 0 0 0 0
441.198 45.6111 5.95608 0 0 0 0
441.198 47.3889 5.95608 0 0 0 0
441.198 49.1667 5.95608 0 0 0 0
441.198 50.9445 5.95608 0 0 0 0
441.198 52.7223 5.95608 0 0 0 0
441.198 54.5 5.95608 0 0 0 0
441.198 56.2778 5.95608 0 0 0 0
441.198 58.0556 5.95608 0 0 0 0
441.198 59.8334 5.95608 0 0 0 0
441.198 61.6111 5.95608 0 0 0 0
441.198 63.3889 5.95608 0 0 0 0
441.198 65.1667 5.95608 0 0 0 0
441.198 66.9445 5.95608 0 0 0 0
441.198 68.7223 5.95608 0 0 0 0
441.198 70.5 5.95608 0 0 0 0
441.198 72.2778 5.95608 0 0 0 0
441.198 74.0556 5.95608 0 0 0 0
441.198 75.8334 5.95608 0 0 0 0
441.198 77.6111 5.95608 0 0 0 0
441.198 79.3889 5.95608 0 0 0 0
441.198 81.1667 5.95608 0 0 0 0
441.198 82.9445 5.95608 0 0 0 0
441.198 84.7223 5.95608 0 0 0 0
441.198 86.5 5.95608 0 0 0 0
441.198 88.2778 5.95608 0 0 0 0
441.198 90.0556 5.95608 0 0 0 0
441.198 91.8334 5.95608 0 0 0 0
441.198 93.6111 5.95608 0 0 0 0
441.198 95.3889 5.95608 0 0 0 0
441.198 97.1667 5.95608 0 0 0 0
441.198 98.9444 5.95608 0 0 0 0
441.198 100.722 5.95608 0 0 0 0
441.198 102.5 5.95608 0 0 0 0
441.198 104.278 5.95608 0 0 0 0
441.198 106.056 5.95608 0 0 0 0
441.198 107.833 5.95608 0 0 0 0
441.198 109.611 5.95608 0 0 0 0
441.198 111.389 5.95608 0 0 0 0
441.198 113.167 5.95608 0 0 0 0
441.198 114.944 5.95608 0 0 0 0
441.198 116.722 5.95608 0 0 0 0
441.198 118.5 5.95608 0 0 0 0
441.198 120.278 5.95608 0 0 0 0
441.198 122.056 5.95608 0 0 0 0
441.198 123.833 5.95608 0 0 0 0
441.198 125.611 5.95608 0 0 0 0
441.198 127.389 5.95608 0 0 0 0
441.198 129.167 5.95608 0 0 0 0
441.198 130.944 5.95608 0 0 0 0
441.198 132.722 5.95608 0 0 0 0
441.198 134.5 5.95608 0 0 0 0
441.198 136.278 5.95608 0 0 0 0
441.198 138.056 5.95608 0 0 0 0
441.198 139.833 5.95608 0 0 0 0
441.198 141.611 5.95608 0 0 0 0
441.198 143.389 5.95608 0 0 0 0
441.198 145.167 5.95608 0 0 0 0
441.198 146.944 5.95608 0 0 0 0
441.198 148.722 5.95608 0 0 0 0
441.198 150.5 5.95608 0 0 0 0
441.198 152.278 5.95608 0 0 0 0
441.198 154.056 5.95608 0 0 0 0
441.198 155.833 5.95608 0 0 0 0
441.198 157.611 5.95608 0 0 0 0
441.198 159.389 5.95608 0 0 0 0
441.198 161.167 5.95608 0 0 0 0
441.198 162.944 5.95608 0 0 0 0
441.198 164.722 5.95608 0 0 0 0
441.198 166.5 5.95608 0 0 0 0
441.198 168.278 5.95608 0 0 0 0
441.198 170.056 5.95608 0 0 0 0
441.198 171.833 5.95608 0 0 0 0
441.198 173.611 5.95608 0 0 0 0
441.198 175.389 5.95608 0 0 0 0
441.198 177.167 5.95608 0 0 0 0
441.198 178.944 5.95608 0 0 0 0
441.198 180.722 5.95608 0 0 0 0
441.198 182.5 5.95608 0 0 0 0
441.198 184.278 5.95608 0 0 0 0
441.198 38.5 6.93169 0 0 0 0
441.198 40.2778 6.93169 0 0 0 0
441.198 42.0556 6.93169 0 0 0 0
441.198 43.8334 6.93169 0 0 0 0
441.198 45.6111 6.93169 0 0 0 0
441.198 47.3889 6.93169 0 0 0 0
441.198 49.1667 6.93169 0 0 0 0
441.198 50.9445 6.93169 0 0 0 0
441.198 52.7223 6.93169 0 0 0 0
441.198 54.5 6.93169 0 0 0 0
441.198 56.2778 6.93169 0 0 0 0
441.198 58.0556 6.93169 0 0 0 0
441.198 59.8334 6.93169 0 0 0 0
441.198 61.6111 6.93169 0 0 0 0
441.198 63.3889 6.93169 0 0 0 0
441.198 65.1667 6.93169 0 0 0 0
441.198 66.9445 6.93169 0 0 0 0
441.198 68.7223 6.93169 0 0 0 0
441.198 70.5 6.93169 0 0 0 0
441.198 72.2778 6.93169 0 0 0 0
441.198 74.0556 6.93169 0 0 0 0
441.198 75.8334 6.93169 0 0 0 0
441.198 77.6111 6.93169 0 0 0 0
441.198 79.3889 6.93169 0 0 0 0
441.198 81.1667 6.93169 0 0 0 0
441.198 82.9445 6.93169 0 0 0 0
441.198 84.7223 6.93169 0 0 0 0
441.198 86.5 6.93169 0 0 0 0
441.198 88.2778 6.93169 0 0 0 0
441.198 90.0556 6.93169 0 0 0 0
441.198 91.8334 6.93169 0 0 0 0
441.198 93.6111 6.93169 0 0 0 0
441.198 95.3889 6.93169 0 0 0 0
441.198 97.1667 6.93169 0 0 0 0
441.198 98.9444 6.93169 0 0 0 0
441.198 100.722 6.93169 0 0 0 0
441.198 102.5 6.93169 0 0 0 0
441.198 104.278 6.93169 0 0 0 0
441.198 106.056 6.93169 0 0 0 0
441.198 107.833 6.93169 0 0 0 0
441.198 109.611 6.93169 0 0 0 0
441.198 111.389 6.93169 0 0 0 0
441.198 113.167 6.93169 0 0 0 0
441.198 114.944 6.93169 0 0 0 0
441.198 116.722 6.93169 0 0 0 0
441.198 118.5 6.93169 0 0 0 0
441.198 120.278 6.93169 0 0 0 0
441.198 122.056 6.93169 0 0 0 0
441.198 123.833 6.93169 0 0 0 0
441.198 125.611 6.93169 0 0 0 0
441.198 127.389 6.93169 0 0 0 0
441.198 129.167 6.93169 0 0 0 0
441.198 130.944 6.93169 0 0 0 0
441.198 132.722 6.93169 0 0 0 0
441.198 134.5 6.93169 0 0 0 0
441.198 136.278 6.93169 0 0 0 0
441.198 138.056 6.93169 0 0 0 0
441.198 139.833 6.93169 0 0 0 0
441.198 141.611 6.93169 0 0 0 0
441.198 143.389 6.93169 0 0 0 0
441.198 145.167 6.93169 0 0 0 0
441.198 146.944 6.93169 0 0 0 0
441.198 148.722 6.93169 0 0 0 0
441.198 150.5 6.93169 0 0 0 0
441.198 152.278 6.93169 0 0 0 0
441.198 154.056 6.93169 0 0 0 0
441.198 155.833 6.93169 0 0 0 0
441.198 157.611 6.93169 0 0 0 0
441.198 159.389 6.93169 0 0 0 0
441.198 161.167 6.93169 0 0 0 0
441.198 162.944 6.93169 0 0 0 0
441.198 164.722 6.93169 0 0 0 0
441.198 166.5 6.93169 0 0 0 0
441.198 168.278 6.93169 0 0 0 0
441.198 170.056 6.93169 0 0 0 0
441.198 171.833 6.93169 0 0 0 0
441.198 173.611 6.93169 0 0 0 0
441.198 175.389 6.93169 0 0 0 0
441.198 177.167 6.93169 0 0 0 0
441.198 178.944 6.93169 0 0 0 0
441.198 180.722 6.93169 0 0 0 0
441.198 182.5 6.93169 0 0 0 0
441.198 184.278 6.93169 0 0 0 0
441.198 38.5 7.9073 0 0 0 0
441.198 40.2778 7.9073 0 0 0 0
441.198 42.0556 7.9073 0 0 0 0
441.198 43.8334 7.9073 0 0 0 0
441.198 45.6111 7.9073 0 0 0 0
441.198 47.3889 7.9073 0 0 0 0
441.198 49.1667 7.9073 0 0 0 0
441.198 50.9445 7.9073 0 0 0 0
441.198 52.7223 7.9073 0 0 0 0
441.198 54.5 7.9073 0 0 0 0
441.198 56.2778 7.9073 0 0 0 0
441.198 58.0556 7.9073 0 0 0 0
441.198 59.8334 7.9073 0 0 0 0
441.198 61.6111 7.9073 0 0 0 0
441.198 63.3889 7.9073 0 0 0 0
441.198 65.1667 7.9073 0 0 0 0
441.198 66.9445 7.9073 0 0 0 0
441.198 68.7223 7.9073 0 0 0 0
441.198 70.5 7.9073 0 0 0 0
441.198 72.2778 7.9073 0 0 0 0
441.198 74.0556 7.9073 0 0 0 0
441.198 75.8334 7.9073 0 0 0 0
441.198 77.6111 7.9073 0 0 0 0
441.198 79.3889 7.9073 0 0 0 0
441.198 81.1667 7.9073 0 0 0 0
441.198 82.9445 7.9073 0 0 0 0
441.198 84.7223 7.9073 0 0 0 0
441.198 86.5 7.9073 0 0 0 0
441.198 88.2778 7.9073 0 0 0 0
441.198 90.0556 7.9073 0 0 0 0
441.198 91.8334 7.9073 0 0 0 0
441.198 93.6111 7.9073 0 0 0 0
441.198 95.3889 7.9073 0 0 0 0
441.198 97.1667 7.9073 0 0 0 0
441.198 98.9444 7.9073 0 0 0 0
441.198 100.722 7.9073 0 0 0 0
441.198 102.5 7.9073 0 0 0 0
441.198 104.278 7.9073 0 0 0 0
441.198 106.056 7.9073 0 0 0 0
441.198 107.833 7.9073 0 0 0 0
441.198 109.611 7.9073 0 0 0 0
441.198 111.389 7.9073 0 0 0 0
441.198 113.167 7.9073 0 0 0 0
441.198 114.944 7.9073 0 0 0 0
441.198 116.722 7.9073 0 0 0 0
441.198 118.5 7.9073 0 0 0 0
441.198 120.278 7.9073 0 0 0 0
441.198 122.056 7.9073 0 0 0 0
441.198 123.833 7.9073 0 0 0 0
441.198 125.611 7.9073 0 0 0 0
441.198 127.389 7.9073 0 0 0 0
441.198 129.167 7.9073 0 0 0 0
441.198 130.944 7.9073 0 0 0 0
441.198 132.722 7.9073 0 0 0 0
441.198 134.5 7.9073 0 0 0 0
441.198 136.278 7.9073 0 0 0 0
441.198 138.056 7.9073 0 0 0 0
441.198 139.833 7.9073 0 0 0 0
441.198 141.611 7.9073 0 0 0 0
441.198 143.389 7.9073 0 0 0 0
441.198 145.167 7.9073 0 0 0 0
441.198 146.944 7.9073 0 0 0 0
441.198 148.722 7.9073 0 0 0 0
441.198 150.5 7.9073 0 0 0 0
441.198 152.278 7.9073 0 0 0 0
441.198 154.056 7.9073 0 0 0 0
441.198 155.833 7.9073 0 0 0 0
441.198 157.611 7.9073 0 0 0 0
441.198 159.389 7.9073 0 0 0 0
441.198 161.167 7.9073 0 0 0 0
441.198 162.944 7.9073 0 0 0 0
441.198 164.722 7.9073 0 0 0 0
441.198 166.5 7.9073 0 0 0 0
441.198 168.278 7.9073 0 0 0 0
441.198 170.056 7.9073 0 0 0 0
441.198 171.833 7.9073 0 0 0 0
441.198 173.611 7.9073 0 0 0 0
441.198 175.389 7.9073 0 0 0 0
441.198 177.167 7.9073 0 0 0 0
441.198 178.944 7.9073 0 0 0 0
441.198 180.722 7.9073 0 0 0 0
441.198 182.5 7.9073 0 0 0 0
441.198 184.278 7.9073 0 0 0 0
441.198 38.5 8.88291 0 0 0 0
441.198 40.2778 8.88291 0 0 0 0
441.198 42.0556 8.88291 0 0 0 0
441.198 43.8334 8.88291 0 0 0 0
441.198 45.6111 8.88291 0 0 0 0
441.198 47.3889 8.88291 0 0 0 0
441.198 49.1667 8.88291 0 0 0 0
441.198 50.9445 8.88291 0 0 0 0
441.198 52.7223 8.88291 0 0 0 0
441.198 54.5 8.88291 0 0 0 0
441.198 56.2778 8.88291 0 0 0 0
441.198 58.0556 8.88291 0 0 0 0
441.198 59.8334 8.88291 0 0 0 0
441.198 61.6111 8.88291 0 0 0 0
441.198 63.3889 8.88291 0 0 0 0
441.198 65.1667 8.88291 0 0 0 0
441.198 66.9445 8.88291 0 0 0 0
441.198 68.7223 8.88291 0 0 0 0
441.198 70.5 8.88291 0 0 0 0
441.198 72.2778 8.88291 0 0 0 0
441.198 74.0556 8.88291 0 0 0 0
441.198 75.8334 8.88291 0 0 0 0
441.198 77.6111 8.88291 0 0 0 0
441.198 79.3889 8.88291 0 0 0 0
441.198 81.1667 8.88291 0 0 0 0
441.198 82.9445 8.88291 0 0 0 0
441.198 84.7223 8.88291 0 0 0 0
441.198 86.5 8.88291 0 0 0 0
441.198 88.2778 8.88291 0 0 0 0
441.198 90.0556 8.88291 0 0 0 0
441.198 91.8334 8.88291 0 0 0 0
441.198 93.6111 8.88291 0 0 0 0
441.198 95.3889 8.88291 0 0 0 0
441.198 97.1667 8.88291 0 0 0 0
441.198 98.9444 8.88291 0 0 0 0
441.198 100.722 8.88291 0 0 0 0
441.198 102.5 8.88291 0 0 0 0
441.198 104.278 8.88291 0 0 0 0
441.198 106.056 8.88291 0 0 0 0
441.198 107.833 8.88291 0 0 0 0
441.198 109.611 8.88291 0 0 0 0
441.198 111.389 8.88291 0 0 0 0
441.198 113.167 8.88291 0 0 0 0
441.198 114.944 8.88291 0 0 0 0
441.198 116.722 8.88291 0 0 0 0
441.198 118.5 8.88291 0 0 0 0
441.198 120.278 8.88291 0 0 0 0
441.198 122.056 8.88291 0 0 0 0
441.198 123.833 8.88291 0 0 0 0
441.198 125.611 8.88291 0 0 0 0
441.198 127.389 8.88291 0 0 0 0
441.198 129.167 8.88291 0 0 0 0
441.198 130.944 8.88291 0 0 0 0
441.198 132.722 8.88291 0 0 0 0
441.198 134.5 8.88291 0 0 0 0
441.198 136.278 8.88291 0 0 0 0
441.198 138.056 8.88291 0 0 0 0
441.198 139.833 8.88291 0 0 0 0
441.198 141.611 8.88291 0 0 0 0
441.198 143.389 8.88291 0 0 0 0
441.198 145.167 8.88291 0 0 0 0
441.198 146.944 8.88291 0 0 0 0
441.198 148.722 8.88291 0 0 0 0
441.198 150.5 8.88291 0 0 0 0
441.198 152.278 8.88291 0 0 0 0
441.198 154.056 8.88291 0 0 0 0
441.198 155.833 8.88291 0 0 0 0
441.198 157.611 8.88291 0 0 0 0
441.198 159.389 8.88291 0 0 0 0
441.198 161.167 8.88291 0 0 0 0
441.198 162.944 8.88291 0 0 0 0
441.198 164.722 8.88291 0 0 0 0
441.198 166.5 8.88291 0 0 0 0
441.198 168.278 8.88291 0 0 0 0
441.198 170.056 8.88291 0 0 0 0
441.198 171.833 8.88291 0 0 0 0
441.198 173.611 8.88291 0 0 0 0
441.198 175.389 8.88291 61.6199 81.4527 4.37485 -73694.7
441.198 177.167 8.88291 0 0 0 0
441.198 178.944 8.88291 0 0 0 0
441.198 180.722 8.88291 0 0 0 0
441.198 182.5 8.88291 73.0298 77.0296 11.9789 -27395.8
441.198 184.278 8.88291 58.8362 55.628 11.625 -34909
441.198 38.5 9.85852 0 0 0 0
441.198 40.2778 9.85852 0 0 0 0
441.198 42.0556 9.85852 0 0 0 0
441.198 43.8334 9.85852 0 0 0 0
441.198 45.6111 9.85852 0 0 0 0
441.198 47.3889 9.85852 0 0 0 0
441.198 49.1667 9.85852 0 0 0 0
441.198 50.9445 9.85852 0 0 0 0
441.198 52.7223 9.85852 0 0 0 0
441.198 54.5 9.85852 0 0 0 0
441.198 56.2778 9.85852 0 0 0 0
441.198 58.0556 9.85852 0 0 0 0
441.198 59.8334 9.85852 0 0 0 0
441.198 61.6111 9.85852 0 0 0 0
441.198 63.3889 9.85852 0 0 0 0
441.198 65.1667 9.85852 0 0 0 0
441.198 66.9445 9.85852 0 0 0 0
441.198 68.7223 9.85852 0 0 0 0
441.198 70.5 9.85852 0 0 0 0
441.198 72.2778 9.85852 0 0 0 0
441.198 74.0556 9.85852 0 0 0 0
441.198 75.8334 9.85852 0 0 0 0
441.198 77.6111 9.85852 0 0 0 0
441.198 79.3889 9.85852 0 0 0 0
441.198 81.1667 9.85852 0 0 0 0
441.198 82.9445 9.85852 0 0 0 0