TITLE = "PSI data, model ID: 1, wind tunnel: TWG"
VARIABLES = "cp", "xi", "eta"
DATASETAUXDATA L.E.="medium radius"
DATASETAUXDATA M="0.399"
DATASETAUXDATA Rmac="3.11"
DATASETAUXDATA alpha="13.3"
DATASETAUXDATA Run="800"
DATASETAUXDATA Point="4"

ZONE I=19, J=1, F=Point, T="xi = 0.2"
-0.254614 0.2 0.05
999.999 0.2 0.1
-0.273615 0.2 0.15
999.999 0.2 0.2
-0.32074 0.2 0.3
-0.344345 0.2 0.35
-0.368619 0.2 0.4
-0.394902 0.2 0.45
-0.431062 0.2 0.5
-0.458852 0.2 0.55
-0.495431 0.2 0.6
-0.545905 0.2 0.65
-0.598388 0.2 0.7
-0.655826 0.2 0.75
-0.741756 0.2 0.8
-0.838745 0.2 0.85
999.999 0.2 0.9
999.999 0.2 0.95
-2.50147 0.2 1

ZONE I=29, J=1, F=Point, T="xi = 0.4"
-0.19669 0.4 0.05
-0.200038 0.4 0.1
-0.210167 0.4 0.15
-0.203973 0.4 0.2
-0.209916 0.4 0.25
-0.215607 0.4 0.3
-0.233436 0.4 0.35
-0.248922 0.4 0.4
-0.270015 0.4 0.45
-0.332877 0.4 0.5
-0.379668 0.4 0.525
-0.45609 0.4 0.55
-0.522635 0.4 0.575
-0.603912 0.4 0.6
-0.651339 0.4 0.65
-0.659509 0.4 0.675
-0.664631 0.4 0.7
-0.660906 0.4 0.725
-0.666272 0.4 0.75
-0.678334 0.4 0.775
-0.688462 0.4 0.8
-0.708986 0.4 0.825
-0.735194 0.4 0.85
-0.787694 0.4 0.875
-0.891838 0.4 0.9
-1.01443 0.4 0.925
-1.2348 0.4 0.95
999.999 0.4 0.975
-3.42502 0.4 1

ZONE I=29, J=1, F=Point, T="xi = 0.6"
-0.0465246 0.6 0.05
-0.0671996 0.6 0.1
-0.088879 0.6 0.15
-0.108633 0.6 0.2
-0.126211 0.6 0.25
-0.139688 0.6 0.3
-0.154922 0.6 0.35
-0.158354 0.6 0.4
-0.171244 0.6 0.45
-0.172416 0.6 0.5
-0.175346 0.6 0.525
-0.162623 0.6 0.55
-0.127299 0.6 0.575
-0.127969 0.6 0.6
-0.129978 0.6 0.625
-0.284412 0.6 0.65
-0.57177 0.6 0.675
-0.856465 0.6 0.7
-0.826951 0.6 0.725
-0.44864 0.6 0.775
-0.453495 0.6 0.8
-0.443116 0.6 0.825
-0.511168 0.6 0.85
-1.1269 0.6 0.875
-1.95645 0.6 0.9
-1.89421 0.6 0.925
-1.48163 0.6 0.95
999.999 0.6 0.975
-1.33223 0.6 1

ZONE I=26, J=1, F=Point, T="xi = 0.8"
-0.200038 0.8 0.25
-0.193593 0.8 0.3
-0.183883 0.8 0.35
-0.181205 0.8 0.4
-0.17928 0.8 0.45
-0.194598 0.8 0.5
-0.208995 0.8 0.525
-0.245155 0.8 0.55
-0.291862 0.8 0.575
-0.329111 0.8 0.6
-0.323586 0.8 0.625
-0.302911 0.8 0.65
-0.293871 0.8 0.675
-0.298224 0.8 0.7
-0.231762 0.8 0.725
-0.360249 0.8 0.75
-0.521714 0.8 0.775
-0.858147 0.8 0.8
-1.32443 0.8 0.825
-1.41531 0.8 0.85
-1.11889 0.8 0.875
-0.97463 0.8 0.9
-0.940981 0.8 0.925
-0.879082 0.8 0.95
999.999 0.8 0.975
-0.837238 0.8 1

ZONE I=27, J=1, F=Point, T="xi = 0.95"
-0.307515 0.95 0.2
-0.269178 0.95 0.25
-0.222304 0.95 0.3
-0.234859 0.95 0.35
-0.28684 0.95 0.4
-0.330366 0.95 0.45
-0.310947 0.95 0.5
-0.354975 0.95 0.525
-0.345851 0.95 0.55
-0.325846 0.95 0.575
-0.322414 0.95 0.6
-0.33271 0.95 0.625
-0.34334 0.95 0.65
-0.348697 0.95 0.675
-0.429974 0.95 0.7
-0.536363 0.95 0.725
-0.690303 0.95 0.75
-0.836811 0.95 0.775
-0.868184 0.95 0.8
-0.743698 0.95 0.825
-0.570765 0.95 0.85
-0.530001 0.95 0.875
-0.507485 0.95 0.9
-0.488567 0.95 0.925
-0.39733 0.95 0.95
999.999 0.95 0.975
-0.449561 0.95 1

