TITLE = "PSP ToPas-3D data, model ID: 1, wind tunnel: TWG"
VARIABLES="X", "Y", "Z", "cp"
ZONE I=205, J=49, K=1, F=POINT, T="BLOCK 0"
98.044 0 8.334 -0.251443
100.213 0 8.334 -0.25848
102.381 0 8.334 -0.257847
104.532 0 8.334 -0.245627
106.682 0 8.334 -0.229295
108.832 0 8.334 -0.224263
110.983 0 8.334 -0.207043
113.133 0 8.334 -0.199745
115.283 0 8.334 -0.189508
117.434 0 8.334 -0.184121
119.584 0 8.334 -0.181368
121.734 0 8.334 -0.182711
123.885 0 8.334 -0.194492
126.035 0 8.334 -0.212926
128.185 0 8.334 -0.218545
130.336 0 8.334 -0.218499
132.486 0 8.334 -0.227651
134.636 0 8.334 -0.236374
136.787 0 8.334 -0.236345
138.937 0 8.334 -0.237022
141.088 0 8.334 -0.230693
143.238 0 8.334 -0.224527
145.388 0 8.334 -0.221837
147.539 0 8.334 -0.223757
149.689 0 8.334 -0.229883
151.839 0 8.334 -0.229893
153.99 0 8.334 -0.229901
156.14 0 8.334 -0.229295
158.29 0 8.334 -0.229295
160.441 0 8.334 -0.229295
162.591 0 8.334 -0.236159
164.741 0 8.334 -0.229949
166.892 0 8.334 -0.229945
169.042 0 8.334 -0.229942
171.192 0 8.334 -0.226084
173.343 0 8.334 -0.207684
175.493 0 8.334 -0.195912
177.643 0 8.334 -0.190347
179.794 0 8.334 -0.187777
181.944 0 8.334 -0.187775
184.094 0 8.334 -0.195911
186.245 0 8.334 -0.211317
188.395 0 8.334 -0.213245
190.545 0 8.334 -0.213244
192.696 0 8.334 -0.213891
194.846 0 8.334 -0.206396
196.996 0 8.334 -0.183505
199.147 0 8.334 -0.169329
201.297 0 8.334 -0.146422
203.447 0 8.334 -0.143833
205.598 0 8.334 -0.145756
207.748 0 8.334 -0.150674
209.898 0 8.334 -0.156888
212.049 0 8.334 -0.159478
214.199 0 8.334 -0.158805
216.349 0 8.334 -0.158799
218.5 0 8.334 -0.153246
220.65 0 8.334 -0.147018
222.801 0 8.334 -0.151309
224.951 0 8.334 -0.151933
227.101 0 8.334 -0.145826
229.252 0 8.334 -0.140221
231.402 0 8.334 -0.138292
233.552 0 8.334 -0.122845
235.703 0 8.334 -0.123543
237.853 0 8.334 -0.123545
240.003 0 8.334 -0.123548
242.154 0 8.334 -0.124257
244.304 0 8.334 -0.136028
246.454 0 8.334 -0.136744
248.605 0 8.334 -0.134821
250.755 0 8.334 -0.134829
252.905 0 8.334 -0.132778
255.056 0 8.334 -0.117334
257.206 0 8.334 -0.105711
259.356 0 8.334 -0.079251
261.507 0 8.334 -0.0662917
263.657 0 8.334 -0.0582746
265.807 0 8.334 -0.0582908
267.958 0 8.334 -0.0575674
270.108 0 8.334 -0.0727314
272.258 0 8.334 -0.0825215
274.409 0 8.334 -0.0844624
276.559 0 8.334 -0.0844625
278.709 0 8.334 -0.0844625
280.86 0 8.334 -0.0838256
283.01 0 8.334 -0.0748909
285.16 0 8.334 -0.0601945
287.311 0 8.334 -0.0421403
289.461 0 8.334 -0.0300464
291.611 0 8.334 -0.0153564
293.762 0 8.334 0.0116618
295.912 0 8.334 0.0428355
298.063 0 8.334 0.055106
300.213 0 8.334 0.100158
302.363 0 8.334 0.117264
304.514 0 8.334 0.123669
306.664 0 8.334 0.13564
308.814 0 8.334 0.145501
310.032 0 8.334 0.194175
311.25 0 8.334 0.216314
311.644 1.21454 8.334 0.240279
312.039 2.42907 8.334 0.251518
312.827 3.43217 8.334 0.251518
313.615 4.43526 8.334 0.251518
314.588 5.23392 8.334 0.240279
315.562 6.03258 8.334 0.240279
316.603 6.73824 8.334 0.206579
317.644 7.4439 8.334 0.195352
318.729 8.07843 8.334 0.128042
319.814 8.71295 8.334 0.116833
320.928 9.29659 8.334 0.116832
322.041 9.88024 8.334 0.0832225
323.175 10.4215 8.334 0.0720245
324.309 10.9628 8.334 0.0272598
326.272 11.8129 8.334 0.00489376
328.235 12.6629 8.334 -0.0509739
330.229 13.4386 8.334 -0.0509745
332.223 14.2143 8.334 -0.0509745
334.238 14.9319 8.334 -0.0621392
336.253 15.6496 8.334 -0.0733019
338.287 16.3129 8.334 -0.0844618
340.321 16.9762 8.334 -0.106774
342.371 17.5859 8.334 -0.162505
344.421 18.1956 8.334 -0.173644
346.483 18.7649 8.334 -0.173644
348.545 19.3343 8.334 -0.162506
350.617 19.866 8.334 -0.151365
352.689 20.3977 8.334 -0.151365
354.77 20.8917 8.334 -0.151365
356.851 21.3857 8.334 -0.151365
358.941 21.8417 8.334 -0.151365
361.031 22.2978 8.334 -0.184779
363.129 22.7152 8.334 -0.195912
365.227 23.1327 8.334 -0.240416
367.33 23.5209 8.334 -0.262651
369.434 23.9092 8.334 -0.262652
371.542 24.2703 8.334 -0.240417
373.65 24.6313 8.334 -0.240417
375.763 24.9652 8.334 -0.229295
377.876 25.299 8.334 -0.229295
379.993 25.6056 8.334 -0.251535
382.11 25.9122 8.334 -0.251536
384.23 26.1915 8.334 -0.273765
386.351 26.4708 8.334 -0.284876
388.475 26.7228 8.334 -0.284877
390.599 26.9749 8.334 -0.284877
392.726 27.2013 8.334 -0.262652
394.853 27.4277 8.334 -0.251536
396.982 27.6328 8.334 -0.251536
399.111 27.8378 8.334 -0.251536
401.242 28.0226 8.334 -0.251536
403.373 28.2074 8.334 -0.284876
405.506 28.3727 8.334 -0.284877
407.638 28.538 8.334 -0.284877
409.772 28.6853 8.334 -0.229295
411.906 28.8326 8.334 -0.21817
414.041 28.9626 8.334 -0.195913
416.176 29.0926 8.334 -0.18478
418.312 29.2065 8.334 -0.18478
420.448 29.3203 8.334 -0.218169
422.585 29.419 8.334 -0.21817
424.721 29.5178 8.334 -0.229294
426.859 29.6027 8.334 -0.262651
428.996 29.6876 8.334 -0.351486
431.134 29.7594 8.334 -0.329294
433.271 29.8312 8.334 -0.307091
435.41 29.891 8.334 -0.295985
437.548 29.9509 8.334 -0.273766
439.686 29.999 8.33158 -0.251536
441.825 30.0472 8.32915 -0.262651
443.963 30.0854 8.31261 -0.262652
446.102 30.1236 8.29606 -0.273765
448.24 30.1618 8.27951 -0.273766
450.379 30.2 8.26297 -0.329293
452.516 30.2422 8.18853 -0.329294
454.653 30.2843 8.11409 -0.329294
456.79 30.3282 8.01469 -0.295985
458.926 30.3721 7.91529 -0.284877
461.056 30.4295 7.7296 -0.284877
463.187 30.487 7.54392 -0.30709
465.308 30.5558 7.27949 -0.362578
467.43 30.6246 7.01506 -0.440146
469.541 30.7038 6.67553 -0.440147
471.651 30.783 6.336 -0.417998
473.643 30.8693 5.88929 -0.384754
475.635 30.9556 5.44258 -0.340392
477.252 31.0277 4.99596 -0.284877
478.869 31.0998 4.54934 -0.273766
480.181 31.1559 4.1274 -0.207043
481.493 31.212 3.70547 -0.129075
482.557 31.253 3.31872 -0.0621399
483.622 31.294 2.93197 -0.0621399
484.486 31.3226 2.58728 -0.0621399
485.35 31.3512 2.2426 0.0160748
486.053 31.3697 1.94232 999.999
486.756 31.3882 1.64205 999.999
487.329 31.3997 1.38399 999.999
487.902 31.4113 1.12592 999.999
488.369 31.4178 0.905885 999.999
488.836 31.4244 0.68585 999.999
489.216 31.427 0.49939 999.999
489.597 31.4296 0.31293 999.999
489.909 31.4308 0.156465 999.999
490.22 31.432 0 999.999
98.4697 0.42394 8.33406 -0.273535
100.626 0.431872 8.33406 -0.2793
102.783 0.439805 8.33406 -0.27284
104.922 0.447705 8.33406 -0.255532
107.061 0.455605 8.33406 -0.229295
109.2 0.463507 8.33406 -0.2251
111.339 0.47141 8.33406 -0.207043
113.477 0.479312 8.33406 -0.191282
115.616 0.487215 8.33406 -0.183061
117.755 0.495117 8.33406 -0.178193
119.894 0.50302 8.33406 -0.172926
122.033 0.510925 8.33406 -0.175102
124.171 0.51883 8.33406 -0.183654
126.31 0.526735 8.33406 -0.202105
128.449 0.53464 8.33406 -0.204255
130.588 0.542548 8.33406 -0.20433
132.727 0.550455 8.33406 -0.209176
134.866 0.558362 8.33406 -0.216415
137.004 0.56627 8.33406 -0.216428
139.143 0.574178 8.33406 -0.213481
141.282 0.582085 8.33406 -0.214276
143.421 0.589993 8.33406 -0.210586
145.56 0.5979 8.33406 -0.214021
147.698 0.60581 8.33406 -0.220361
149.837 0.61372 8.33406 -0.230747
151.976 0.62163 8.33406 -0.230733
154.115 0.62954 8.33406 -0.230721
156.253 0.63745 8.33406 -0.229295
158.392 0.64536 8.33406 -0.229295
160.531 0.653272 8.33406 -0.229295
162.67 0.661185 8.33406 -0.22538
164.809 0.669095 8.33406 -0.21954
166.947 0.677005 8.33406 -0.21954
169.086 0.684917 8.33406 -0.21954
171.225 0.69283 8.33406 -0.218002
173.364 0.700743 8.33406 -0.208414
175.503 0.708655 8.33406 -0.202591
177.641 0.71657 8.33406 -0.200365
179.78 0.724485 8.33406 -0.197112
181.919 0.732397 8.33406 -0.197112
184.058 0.74031 8.33406 -0.202593
186.196 0.748225 8.33406 -0.210988
188.335 0.75614 8.33406 -0.210644
190.474 0.764053 8.33406 -0.210647
192.613 0.771965 8.33406 -0.207579
194.751 0.77988 8.33406 -0.199031
196.89 0.787795 8.33406 -0.175376
199.029 0.79571 8.33406 -0.167529
201.168 0.803625 8.33406 -0.152798
203.307 0.811543 8.33406 -0.149523
205.445 0.81946 8.33406 -0.15587
207.584 0.827375 8.33406 -0.161134
209.723 0.83529 8.33406 -0.167024
211.862 0.843205 8.33406 -0.170334
214 0.85112 8.33406 -0.173379
216.139 0.859037 8.33406 -0.173387
218.278 0.866955 8.33406 -0.164454
220.417 0.874873 8.33406 -0.158529
222.555 0.88279 8.33406 -0.158126
224.694 0.890705 8.33406 -0.152857
226.833 0.89862 8.33406 -0.142406
228.972 0.906538 8.33406 -0.140221
231.111 0.914455 8.33406 -0.133876
233.249 0.922373 8.33406 -0.123084
235.388 0.93029 8.33406 -0.120097
237.527 0.938207 8.33406 -0.120094
239.666 0.946125 8.33406 -0.12009
241.804 0.954045 8.33406 -0.117129
243.943 0.961965 8.33406 -0.123022
246.082 0.969883 8.33406 -0.120082
248.221 0.9778 8.33406 -0.124369
250.359 0.985718 8.33406 -0.124356
252.498 0.993635 8.33406 -0.124859
254.637 1.00156 8.33406 -0.113963
256.776 1.00948 8.33406 -0.101153
258.914 1.01739 8.33406 -0.0721473
261.053 1.02531 8.33406 -0.0569212
263.192 1.03323 8.33406 -0.0508655
265.331 1.04115 8.33406 -0.0508424
267.469 1.04907 8.33406 -0.0536991
269.608 1.05699 8.33406 -0.0692221
271.747 1.06491 8.33406 -0.0780876
273.886 1.07282 8.33406 -0.0844621
276.024 1.08075 8.33406 -0.0844625
278.163 1.08867 8.33406 -0.0844625
280.302 1.09659 8.33406 -0.0794069
282.441 1.1045 8.33406 -0.0696174
284.579 1.11243 8.33406 -0.0557502
286.718 1.12035 8.33406 -0.041589
288.857 1.12826 8.33406 -0.0307973
290.996 1.13618 8.33406 -0.0168941
293.134 1.1441 8.33406 0.0154967
295.273 1.15203 8.33406 0.0473074
297.412 1.15994 8.33406 0.0587838
299.551 1.16786 8.33406 0.0971901
301.689 1.17578 8.33406 0.112934
303.828 1.18371 8.33406 0.11798
305.967 1.19163 8.33406 0.128268
308.106 1.19955 8.33406 0.145686
309.334 1.20481 8.33406 0.213881
310.562 1.21007 8.33406 0.231268
311.017 2.42432 8.33406 0.229043
311.471 3.63858 8.33406 0.240279
312.311 4.64579 8.33406 0.251518
313.151 5.653 8.33406 0.229043
314.172 6.45993 8.33406 0.229043
315.193 7.26686 8.33406 0.206579
316.281 7.98272 8.33406 0.195352
317.368 8.69858 8.33406 0.172904
318.499 9.34478 8.33406 0.128042
319.63 9.99098 8.33406 0.116833
320.788 10.5874 8.33406 0.0944232
321.946 11.1837 8.33406 0.0720245
323.124 11.7387 8.33406 0.0608293
324.303 12.2936 8.33406 0.0160754
326.265 13.1479 8.33406 0.00489376
328.227 14.0021 8.33406 -0.0509739
330.221 14.7827 8.33406 -0.0509745
332.215 15.5632 8.33406 -0.0509745
334.23 16.2857 8.33406 -0.0509745
336.246 17.0082 8.33406 -0.0733019
338.28 17.6762 8.33406 -0.0733025
340.313 18.3443 8.33406 -0.0844618
342.364 18.9587 8.33406 -0.129074
344.415 19.573 8.33406 -0.162505
346.477 20.1469 8.33406 -0.151365
348.539 20.7209 8.33406 -0.151365
350.611 21.2571 8.33406 -0.151365
352.683 21.7934 8.33406 -0.151365
354.764 22.2919 8.33406 -0.151365
356.846 22.7904 8.33406 -0.151365
358.936 23.2509 8.33406 -0.162505
361.026 23.7115 8.33406 -0.184779
363.124 24.1334 8.33406 -0.195912
365.222 24.5554 8.33406 -0.218169
367.326 24.9481 8.33406 -0.240416
369.43 25.3409 8.33406 -0.240417
371.538 25.7064 8.33406 -0.229295
373.647 26.072 8.33406 -0.229295
375.76 26.4104 8.33406 -0.229295
377.873 26.7487 8.33406 -0.229295
379.99 27.0599 8.33406 -0.240416
382.107 27.371 8.33406 -0.251535
384.228 27.6549 8.33406 -0.262651
386.349 27.9387 8.33406 -0.284876
388.473 28.1954 8.33406 -0.284877
390.597 28.452 8.33406 -0.273766
392.724 28.6831 8.33406 -0.262652
394.852 28.9142 8.33406 -0.251536
396.981 29.124 8.33406 -0.251536
399.11 29.3338 8.33406 -0.251536
401.241 29.5233 8.33406 -0.240417
403.372 29.7128 8.33406 -0.251535
405.505 29.883 8.33406 -0.284876
407.638 30.0531 8.33406 -0.240417
409.772 30.2053 8.33406 -0.21817
411.906 30.3576 8.33406 -0.195913
414.041 30.4925 8.33406 -0.18478
416.176 30.6275 8.33406 -0.18478
418.312 30.7464 8.33406 -0.18478
420.448 30.8653 8.33406 -0.207042
422.585 30.9692 8.33406 -0.218169
424.722 31.073 8.33406 -0.21817
426.859 31.1631 8.33406 -0.229294
428.997 31.2532 8.33406 -0.251535
431.135 31.3303 8.33406 -0.251536
433.272 31.4074 8.33406 -0.262651
435.411 31.4727 8.33406 -0.262652
437.549 31.5379 8.33406 -0.251536
439.687 31.5916 8.33163 -0.240417
441.826 31.6453 8.3292 -0.251535
443.965 31.6891 8.31263 -0.251536
446.103 31.733 8.29607 -0.273765
448.242 31.7769 8.2795 -0.295985
450.38 31.8208 8.26294 -0.329293
452.518 31.8688 8.18847 -0.329294
454.656 31.9169 8.114 -0.329294
456.792 31.9667 8.01464 -0.318194
458.928 32.0165 7.91527 -0.295985
461.059 32.0798 7.72953 -0.295985
463.19 32.1431 7.54378 -0.30709
465.311 32.2176 7.27927 -0.318193
467.433 32.2921 7.01475 -0.373667
469.542 32.3765 6.67543 -0.417997
471.651 32.4609 6.33611 -0.384754
473.643 32.5584 5.88925 -0.340392
475.635 32.6559 5.44239 -0.318194
477.252 32.7371 4.99597 -0.273766
478.869 32.8183 4.54954 -0.251536
480.181 32.882 4.12744 -0.162506
481.493 32.9456 3.70534 -0.106774
482.557 32.9929 3.31857 -0.0286356
483.622 33.0401 2.93181 -0.0286356
484.486 33.074 2.58726 -0.0286356
485.35 33.1079 2.24271 0.00489315
486.053 33.1308 1.94246 999.999
486.756 33.1537 1.64221 999.999
487.329 33.169 1.38411 999.999
487.902 33.1842 1.126 999.999
488.369 33.1939 0.90594 999.999
488.836 33.2036 0.68588 999.999
489.217 33.2089 0.499453 999.999
489.597 33.2141 0.313025 999.999
489.909 33.2175 0.156512 999.999
490.22 33.2208 0 999.999
98.8954 0.84788 8.33413 -0.284207
101.04 0.863745 8.33413 -0.283592
103.185 0.87961 8.33413 -0.265899
105.313 0.89541 8.33413 -0.254309
107.44 0.91121 8.33413 -0.229295
109.567 0.927015 8.33413 -0.219784
111.694 0.94282 8.33413 -0.207043
113.822 0.958625 8.33413 -0.182344
115.949 0.97443 8.33413 -0.184713
118.076 0.990235 8.33413 -0.182946
120.204 1.00604 8.33413 -0.173542
122.331 1.02185 8.33413 -0.183422
124.458 1.03766 8.33413 -0.18439
126.585 1.05347 8.33413 -0.19304
128.713 1.06928 8.33413 -0.192013
130.84 1.0851 8.33413 -0.191949
132.967 1.10091 8.33413 -0.190157
135.095 1.11672 8.33413 -0.191113
137.222 1.13254 8.33413 -0.191069
139.349 1.14836 8.33413 -0.181109
141.476 1.16417 8.33413 -0.192045
143.604 1.17999 8.33413 -0.193972
145.731 1.1958 8.33413 -0.204224
147.858 1.21162 8.33413 -0.217095
149.985 1.22744 8.33413 -0.228402
152.113 1.24326 8.33413 -0.228402
154.24 1.25908 8.33413 -0.228401
156.367 1.2749 8.33413 -0.229295
158.494 1.29072 8.33413 -0.229295
160.621 1.30654 8.33413 -0.229295
162.749 1.32237 8.33413 -0.208564
164.876 1.33819 8.33413 -0.206145
167.003 1.35401 8.33413 -0.206145
169.13 1.36983 8.33413 -0.206144
171.258 1.38566 8.33413 -0.202634
173.385 1.40149 8.33413 -0.206144
175.512 1.41731 8.33413 -0.209268
177.639 1.43314 8.33413 -0.210381
179.766 1.44897 8.33413 -0.207299
181.894 1.46479 8.33413 -0.207299
184.021 1.48062 8.33413 -0.209265
186.148 1.49645 8.33413 -0.2055
188.275 1.51228 8.33413 -0.205035
190.402 1.52811 8.33413 -0.205037
192.53 1.54393 8.33413 -0.195224
194.657 1.55976 8.33413 -0.18344
196.784 1.57559 8.33413 -0.162061
198.911 1.59142 8.33413 -0.15961
201.039 1.60725 8.33413 -0.155969
203.166 1.62309 8.33413 -0.152902
205.293 1.63892 8.33413 -0.16579
207.42 1.65475 8.33413 -0.174537
209.547 1.67058 8.33413 -0.176913
211.674 1.68641 8.33413 -0.17994
213.802 1.70224 8.33413 -0.189783
215.929 1.71807 8.33413 -0.189774
218.056 1.73391 8.33413 -0.177553
220.183 1.74975 8.33413 -0.17521
222.31 1.76558 8.33413 -0.164649
224.438 1.78141 8.33413 -0.150474
226.565 1.79724 8.33413 -0.139156
228.692 1.81308 8.33413 -0.140221
230.819 1.82891 8.33413 -0.127324
232.946 1.84475 8.33413 -0.126788
235.073 1.86058 8.33413 -0.116875
237.201 1.87641 8.33413 -0.116878
239.328 1.89225 8.33413 -0.116882
241.455 1.90809 8.33413 -0.106944
243.582 1.92393 8.33413 -0.10398
245.709 1.93977 8.33413 -0.0940315
247.837 1.9556 8.33413 -0.11484
249.964 1.97144 8.33413 -0.114852
252.091 1.98727 8.33413 -0.115164
254.218 2.00311 8.33413 -0.114715
256.345 2.01895 8.33413 -0.104465
258.472 2.03479 8.33413 -0.0797087
260.6 2.05062 8.33413 -0.0597388
262.727 2.06646 8.33413 -0.0505953
264.854 2.0823 8.33413 -0.0506062
266.981 2.09814 8.33413 -0.0606356
269.108 2.11397 8.33413 -0.0701831
271.235 2.12981 8.33413 -0.0715731
273.363 2.14565 8.33413 -0.0844617
275.49 2.16149 8.33413 -0.0844625
277.617 2.17733 8.33413 -0.0844625
279.744 2.19317 8.33413 -0.064584
281.871 2.20901 8.33413 -0.0596627
283.998 2.22485 8.33413 -0.0492553
286.126 2.24069 8.33413 -0.0435166
288.253 2.25653 8.33413 -0.0385224
290.38 2.27237 8.33413 -0.0281283
292.507 2.28821 8.33413 0.00990051
294.634 2.30405 8.33413 0.0397443
296.761 2.31989 8.33413 0.0617663
298.889 2.33573 8.33413 0.0781652
301.016 2.35157 8.33413 0.0922592
303.143 2.36741 8.33413 0.104865
305.27 2.38325 8.33413 0.112524
307.397 2.39909 8.33413 0.141227
308.635 2.40961 8.33413 0.213522
309.874 2.42013 8.33413 0.228368
310.389 3.63411 8.33413 0.229043
310.903 4.84809 8.33413 0.229043
311.795 5.85941 8.33413 0.229043
312.687 6.87074 8.33413 0.206579
313.756 7.68594 8.33413 0.206579
314.825 8.50114 8.33413 0.206579
315.959 9.2272 8.33413 0.184126
317.093 9.95325 8.33413 0.161684
318.269 10.6111 8.33413 0.116833
319.445 11.269 8.33413 0.105627
320.648 11.8781 8.33413 0.0832225
321.851 12.4872 8.33413 0.0720245
323.074 13.0558 8.33413 0.0608293
324.296 13.6243 8.33413 0.0160754
326.258 14.4829 8.33413 -0.0174614
328.219 15.3414 8.33413 -0.028635
330.213 16.1268 8.33413 -0.0509739
332.207 16.9121 8.33413 -0.0509745
334.223 17.6394 8.33413 -0.0509745
336.238 18.3668 8.33413 -0.0509745
338.272 19.0396 8.33413 -0.0733019
340.306 19.7125 8.33413 -0.0844618
342.357 20.3315 8.33413 -0.0956191
344.408 20.9504 8.33413 -0.129074
346.47 21.5289 8.33413 -0.140221
348.533 22.1075 8.33413 -0.151364
350.605 22.6483 8.33413 -0.151365
352.677 23.1891 8.33413 -0.151365
354.759 23.6921 8.33413 -0.151365
356.841 24.1951 8.33413 -0.151365
358.931 24.6601 8.33413 -0.162505
361.021 25.1252 8.33413 -0.184779
363.12 25.5516 8.33413 -0.195912
365.218 25.9781 8.33413 -0.207042
367.322 26.3753 8.33413 -0.218169
369.426 26.7726 8.33413 -0.229294
371.535 27.1426 8.33413 -0.21817
373.643 27.5127 8.33413 -0.21817
375.756 27.8556 8.33413 -0.21817
377.87 28.1984 8.33413 -0.229294
379.987 28.5141 8.33413 -0.229295
382.104 28.8298 8.33413 -0.229295
384.225 29.1182 8.33413 -0.251535
386.346 29.4067 8.33413 -0.262651
388.471 29.6679 8.33413 -0.262652
390.595 29.9292 8.33413 -0.262652
392.723 30.165 8.33413 -0.262652
394.85 30.4007 8.33413 -0.251536
396.98 30.6152 8.33413 -0.251536
399.109 30.8297 8.33413 -0.251536
401.24 31.024 8.33413 -0.240417
403.372 31.2183 8.33413 -0.240417
405.505 31.3933 8.33413 -0.240417
407.637 31.5683 8.33413 -0.229295
409.772 31.7254 8.33413 -0.21817
411.906 31.8825 8.33413 -0.195913
414.041 32.0224 8.33413 -0.18478
416.176 32.1624 8.33413 -0.18478
418.313 32.2863 8.33413 -0.18478
420.449 32.4103 8.33413 -0.195912
422.586 32.5193 8.33413 -0.207042
424.723 32.6283 8.33413 -0.207043
426.86 32.7236 8.33413 -0.218169
428.998 32.8189 8.33413 -0.229294
431.136 32.9013 8.33413 -0.229295
433.274 32.9837 8.33413 -0.240416
435.412 33.0544 8.33413 -0.240417
437.55 33.125 8.33413 -0.229295
439.689 33.1842 8.33169 -0.229295
441.828 33.2433 8.32925 -0.240416
443.966 33.2928 8.31267 -0.240417
446.105 33.3423 8.29608 -0.273765
448.244 33.3919 8.2795 -0.295985
450.382 33.4416 8.26291 -0.329293
452.52 33.4955 8.18841 -0.340391
454.658 33.5494 8.11391 -0.340392
456.794 33.6051 8.01458 -0.318194
458.931 33.6608 7.91525 -0.295985
461.062 33.73 7.72945 -0.295985
463.193 33.7992 7.54364 -0.295985
465.314 33.8794 7.27904 -0.30709
467.436 33.9595 7.01444 -0.329293
469.544 34.0492 6.67534 -0.362578
471.651 34.1389 6.33623 -0.340392
473.643 34.2475 5.88922 -0.329294
475.635 34.3562 5.44221 -0.284877
477.252 34.4465 4.99597 -0.273766
478.869 34.5369 4.54974 -0.18478
480.181 34.608 4.12748 -0.129075
481.493 34.6792 3.70521 -0.0621399
482.557 34.7327 3.31842 -0.0286356
483.621 34.7863 2.93164 0.00489315
484.486 34.8254 2.58723 0.00489315
485.35 34.8646 2.24281 0.00489315
486.053 34.8919 1.94259 999.999
486.756 34.9193 1.64237 999.999
487.329 34.9383 1.38422 999.999
487.902 34.9572 1.12608 999.999
488.369 34.9701 0.905995 999.999
488.836 34.9829 0.68591 999.999
489.217 34.9907 0.499515 999.999
489.597 34.9986 0.31312 999.999
489.909 35.0041 0.15656 999.999
490.22 35.0097 0 999.999
99.3211 1.27181 8.33413 -0.292105
101.454 1.29577 8.33413 -0.287396
103.588 1.31973 8.33413 -0.262434
105.704 1.34359 8.33413 -0.240417
107.82 1.36744 8.33413 -0.229295
109.936 1.39131 8.33413 -0.21817
112.052 1.41517 8.33413 -0.207043
114.168 1.43903 8.33413 -0.195913
116.284 1.46289 8.33413 -0.18478
118.4 1.48676 8.33413 -0.18478
120.516 1.51063 8.33413 -0.18478
122.632 1.5345 8.33413 -0.18478
124.748 1.55837 8.33413 -0.195912
126.864 1.58224 8.33413 -0.195913
128.98 1.60612 8.33413 -0.195913
131.096 1.62999 8.33413 -0.195913
133.213 1.65387 8.33413 -0.195913
135.329 1.67775 8.33413 -0.18478
137.445 1.70162 8.33413 -0.18478
139.561 1.72551 8.33413 -0.18478
141.677 1.74939 8.33413 -0.18478
143.793 1.77327 8.33413 -0.195912
145.909 1.79715 8.33413 -0.195913
148.025 1.82103 8.33413 -0.218169
150.141 1.84492 8.33413 -0.229294
152.256 1.8688 8.33413 -0.229295
154.372 1.89269 8.33413 -0.229295
156.488 1.91658 8.33413 -0.229295
158.604 1.94046 8.33413 -0.21817
160.72 1.96436 8.33413 -0.207043
162.836 1.98825 8.33413 -0.207043
164.952 2.01214 8.33413 -0.195913
167.068 2.03603 8.33413 -0.195913
169.184 2.05992 8.33413 -0.207042
171.3 2.08381 8.33413 -0.207043
173.416 2.10771 8.33413 -0.207043
175.532 2.1316 8.33413 -0.207043
177.648 2.1555 8.33413 -0.207043
179.764 2.17939 8.33413 -0.207043
181.88 2.20329 8.33413 -0.207043
183.996 2.22719 8.33413 -0.207043
186.112 2.25109 8.33413 -0.207043
188.228 2.27498 8.33413 -0.207043
190.344 2.29888 8.33413 -0.207043
192.46 2.32278 8.33413 -0.18478
194.575 2.34668 8.33413 -0.173644
196.691 2.37058 8.33413 -0.162506
198.807 2.39448 8.33413 -0.151365
200.923 2.41839 8.33413 -0.151365
203.039 2.44229 8.33413 -0.151365
205.155 2.4662 8.33413 -0.162505
207.271 2.4901 8.33413 -0.173644
209.387 2.514 8.33413 -0.173644
211.503 2.5379 8.33413 -0.184779
213.619 2.56181 8.33413 -0.18478
215.735 2.58571 8.33413 -0.18478
217.851 2.60962 8.33413 -0.18478
219.966 2.63352 8.33413 -0.173644
222.082 2.65743 8.33413 -0.162506
224.198 2.68134 8.33413 -0.162506
226.314 2.70524 8.33413 -0.151365
228.43 2.72915 8.33413 -0.140221
230.546 2.75306 8.33413 -0.140221
232.662 2.77696 8.33413 -0.129075
234.778 2.80087 8.33413 -0.117926
236.894 2.82478 8.33413 -0.117926
239.01 2.84869 8.33413 -0.117926
241.125 2.8726 8.33413 -0.106774
243.241 2.89651 8.33413 -0.0956197
245.357 2.92042 8.33413 -0.0956197
247.473 2.94433 8.33413 -0.0956197
249.589 2.96824 8.33413 -0.106774
251.705 2.99215 8.33413 -0.117925
253.821 3.01606 8.33413 -0.117926
255.937 3.03998 8.33413 -0.117926
258.052 3.06389 8.33413 -0.0956197
260.168 3.0878 8.33413 -0.0733025
262.284 3.11171 8.33413 -0.0621399
264.4 3.13562 8.33413 -0.0621399
266.516 3.15953 8.33413 -0.0621399
268.632 3.18345 8.33413 -0.0733019
270.748 3.20736 8.33413 -0.0733025
272.864 3.23127 8.33413 -0.0733025
274.98 3.25519 8.33413 -0.0733025
277.095 3.2791 8.33413 -0.0733025
279.211 3.30301 8.33413 -0.0621399
281.327 3.32693 8.33413 -0.0509745
283.443 3.35085 8.33413 -0.0509745
285.559 3.37476 8.33413 -0.0398064
287.675 3.39868 8.33413 -0.0398064
289.791 3.42259 8.33413 -0.0398064
291.906 3.44651 8.33413 -0.0286356
294.022 3.47042 8.33413 0.0160748
296.138 3.49434 8.33413 0.0384463
298.254 3.51825 8.33413 0.0608287
300.37 3.54217 8.33413 0.083222
302.486 3.56609 8.33413 0.0944227
304.602 3.59 8.33413 0.105626
306.718 3.61392 8.33413 0.116832
307.966 3.63002 8.33413 0.161684
309.214 3.64612 8.33413 0.206579
309.787 4.85866 8.33413 0.21781
310.36 6.0712 8.33413 0.21781
311.302 7.08548 8.33413 0.206579
312.244 8.09977 8.33413 0.206579
313.359 8.92211 8.33413 0.195352
314.473 9.74445 8.33413 0.184126
315.651 10.4796 8.33413 0.172904
316.83 11.2147 8.33413 0.139253
318.049 11.8831 8.33413 0.116833
319.268 12.5515 8.33413 0.0832225
320.514 13.1723 8.33413 0.0720245
321.76 13.793 8.33413 0.072024
323.025 14.374 8.33413 0.0608293
324.29 14.955 8.33413 0.0160754
326.251 15.8179 8.33413 -0.00628519
328.211 16.6807 8.33413 -0.0174614
330.205 17.4709 8.33413 -0.028635
332.199 18.261 8.33413 -0.0398058
334.215 18.9932 8.33413 -0.0509739
336.231 19.7254 8.33413 -0.0509745
338.265 20.403 8.33413 -0.0509745
340.299 21.0807 8.33413 -0.0733019
342.35 21.7043 8.33413 -0.0844618
344.401 22.3279 8.33413 -0.0956191
346.464 22.911 8.33413 -0.106774
348.526 23.4941 8.33413 -0.140221
350.599 24.0395 8.33413 -0.151364
352.672 24.5848 8.33413 -0.151365
354.753 25.0924 8.33413 -0.151365
356.835 25.5999 8.33413 -0.151365
358.926 26.0695 8.33413 -0.162505
361.016 26.539 8.33413 -0.173644
363.115 26.9699 8.33413 -0.184779
365.214 27.4009 8.33413 -0.207042
367.318 27.8026 8.33413 -0.207043
369.422 28.2044 8.33413 -0.207043
371.531 28.5789 8.33413 -0.207043
373.64 28.9535 8.33413 -0.207043
375.753 29.3009 8.33413 -0.218169
377.867 29.6483 8.33413 -0.21817
379.984 29.9685 8.33413 -0.21817
382.102 30.2887 8.33413 -0.229294
384.223 30.5817 8.33413 -0.229295
386.344 30.8747 8.33413 -0.240416
388.469 31.1406 8.33413 -0.262651
390.594 31.4065 8.33413 -0.262652
392.721 31.6469 8.33413 -0.251536
394.849 31.8873 8.33413 -0.251536
396.978 32.1065 8.33413 -0.251536
399.108 32.3257 8.33413 -0.240417
401.239 32.5248 8.33413 -0.240417
403.371 32.7239 8.33413 -0.240417
405.504 32.9037 8.33413 -0.229295
407.637 33.0835 8.33413 -0.21817
409.771 33.2456 8.33413 -0.195913
411.906 33.4076 8.33413 -0.195913
414.041 33.5525 8.33413 -0.195913
416.176 33.6974 8.33413 -0.18478
418.313 33.8264 8.33413 -0.18478
420.449 33.9554 8.33413 -0.195912
422.586 34.0695 8.33413 -0.207042
424.723 34.1837 8.33413 -0.207043
426.861 34.2842 8.33413 -0.207043
428.998 34.3847 8.33413 -0.207043
431.136 34.4724 8.33413 -0.207043
433.275 34.5601 8.33413 -0.229294
435.413 34.6361 8.33413 -0.229295
437.551 34.7121 8.33413 -0.229295
439.69 34.7768 8.33169 -0.229295
441.829 34.8415 8.32924 -0.229295
443.968 34.8966 8.31265 -0.240416
446.106 34.9518 8.29607 -0.284876
448.245 35.0071 8.27948 -0.30709
450.384 35.0624 8.26289 -0.340391
452.522 35.1222 8.18835 -0.340392
454.66 35.182 8.1138 -0.340392
456.797 35.2437 8.01447 -0.318194
458.933 35.3052 7.91514 -0.307091
461.064 35.3803 7.72924 -0.295985
463.195 35.4553 7.54335 -0.295985
465.317 35.5412 7.27866 -0.295985
467.439 35.6271 7.01397 -0.30709
469.545 35.7219 6.6751 -0.318193
471.651 35.8168 6.33623 -0.318194
473.643 35.9366 5.88923 -0.307091
475.635 36.0564 5.44223 -0.284877
477.252 36.1559 4.99599 -0.207043
478.869 36.2554 4.54975 -0.151365
480.181 36.3341 4.12749 -0.0733025
481.493 36.4128 3.70522 -0.0286356
482.557 36.4726 3.31843 -0.00628581
483.621 36.5324 2.93164 0.0272592
484.486 36.5768 2.58722 0.0272592
485.35 36.6213 2.24281 0.00489376
486.053 36.653 1.94259 999.999
486.756 36.6848 1.64236 999.999
487.329 36.7075 1.38422 999.999
487.902 36.7303 1.12607 999.999
488.369 36.7462 0.905992 999.999
488.836 36.7621 0.68591 999.999
489.217 36.7726 0.499513 999.999
489.597 36.7831 0.313115 999.999
489.909 36.7908 0.156558 999.999
490.22 36.7985 0 999.999
99.7467 1.69575 8.33413 -0.289318
101.869 1.7278 8.33413 -0.276676
103.99 1.75985 8.33413 -0.246718
106.095 1.79176 8.33413 -0.229295
108.2 1.82368 8.33413 -0.21817
110.305 1.8556 8.33413 -0.207043
112.41 1.88752 8.33413 -0.207043
114.515 1.91944 8.33413 -0.195913
116.619 1.95136 8.33413 -0.195913
118.724 1.98329 8.33413 -0.18478
120.829 2.01522 8.33413 -0.18478
122.934 2.04715 8.33413 -0.195912
125.039 2.07908 8.33413 -0.195913
127.143 2.11102 8.33413 -0.195913
129.248 2.14295 8.33413 -0.195913
131.353 2.17489 8.33413 -0.195913
133.458 2.20683 8.33413 -0.18478
135.563 2.23877 8.33413 -0.18478
137.667 2.27071 8.33413 -0.18478
139.772 2.30266 8.33413 -0.18478
141.877 2.3346 8.33413 -0.18478
143.982 2.36655 8.33413 -0.195912
146.086 2.3985 8.33413 -0.207042
148.191 2.43045 8.33413 -0.218169
150.296 2.4624 8.33413 -0.21817
152.4 2.49435 8.33413 -0.229294
154.505 2.5263 8.33413 -0.229295
156.61 2.55825 8.33413 -0.21817
158.715 2.59021 8.33413 -0.207043
160.819 2.62217 8.33413 -0.195913
162.924 2.65413 8.33413 -0.195913
165.029 2.68609 8.33413 -0.195913
167.133 2.71805 8.33413 -0.195913
169.238 2.75001 8.33413 -0.195913
171.343 2.78197 8.33413 -0.207042
173.447 2.81393 8.33413 -0.207043
175.552 2.84589 8.33413 -0.207043
177.657 2.87785 8.33413 -0.207043
179.761 2.90982 8.33413 -0.207043
181.866 2.94179 8.33413 -0.207043
183.971 2.97376 8.33413 -0.207043
186.075 3.00573 8.33413 -0.207043
188.18 3.03769 8.33413 -0.207043
190.285 3.06966 8.33413 -0.195913
192.389 3.10163 8.33413 -0.18478
194.494 3.1336 8.33413 -0.173644
196.599 3.16557 8.33413 -0.162506
198.703 3.19755 8.33413 -0.140221
200.808 3.22952 8.33413 -0.140221
202.913 3.2615 8.33413 -0.140221
205.017 3.29347 8.33413 -0.162505
207.122 3.32545 8.33413 -0.173644
209.227 3.35742 8.33413 -0.173644
211.331 3.3894 8.33413 -0.184779
213.436 3.42137 8.33413 -0.18478
215.54 3.45335 8.33413 -0.18478
217.645 3.48532 8.33413 -0.18478
219.75 3.5173 8.33413 -0.173644
221.854 3.54928 8.33413 -0.173644
223.959 3.58126 8.33413 -0.162506
226.064 3.61324 8.33413 -0.151365
228.168 3.64522 8.33413 -0.140221
230.273 3.6772 8.33413 -0.140221
232.377 3.70918 8.33413 -0.140221
234.482 3.74116 8.33413 -0.129075
236.587 3.77314 8.33413 -0.117926
238.691 3.80513 8.33413 -0.117926
240.796 3.83711 8.33413 -0.106774
242.9 3.86909 8.33413 -0.0956197
245.005 3.90108 8.33413 -0.0956197
247.11 3.93306 8.33413 -0.0956197
249.214 3.96505 8.33413 -0.0956197
251.319 3.99703 8.33413 -0.106774
253.423 4.02901 8.33413 -0.117925
255.528 4.061 8.33413 -0.117926
257.633 4.09299 8.33413 -0.117926
259.737 4.12497 8.33413 -0.0956197
261.842 4.15696 8.33413 -0.0956197
263.946 4.18895 8.33413 -0.0733025
266.051 4.22093 8.33413 -0.0733025
268.156 4.25292 8.33413 -0.0733025
270.26 4.28491 8.33413 -0.0733025
272.365 4.3169 8.33413 -0.0733025
274.469 4.34888 8.33413 -0.0733025
276.574 4.38087 8.33413 -0.0621399
278.678 4.41286 8.33413 -0.0509745
280.783 4.44485 8.33413 -0.0509745
282.888 4.47684 8.33413 -0.0509745
284.992 4.50883 8.33413 -0.0509745
287.097 4.54082 8.33413 -0.0509745
289.201 4.57281 8.33413 -0.0398064
291.306 4.6048 8.33413 -0.0398064
293.41 4.6368 8.33413 -0.0174621